 
             +---------------------------------------------------+
             |                                                   |
             |                   WANNIER90                       |
             |                                                   |
             +---------------------------------------------------+
             |                                                   |
             |        Welcome to the Maximally-Localized         |
             |        Generalized Wannier Functions code         |
             |            http://www.wannier.org                 |
             |                                                   |
             |                                                   |
             |  Wannier90 Developer Group:                       |
             |    Giovanni Pizzi    (Paul Scherrer Institute)    |
             |    Valerio Vitale    (University of Trieste)      |
             |    David Vanderbilt  (Rutgers University)         |
             |    Nicola Marzari    (EPFL)                       |
             |    Ivo Souza         (Universidad del Pais Vasco) |
             |    Arash A. Mostofi  (Imperial College London)    |
             |    Jonathan R. Yates (University of Oxford)       |
             |                                                   |
             |  For the full list of Wannier90 3.x authors,      |
             |  please check the code documentation and the      |
             |  README on the GitHub page of the code            |
             |                                                   |
             |                                                   |
             |  Please cite                                      |
             |                                                   |
             |  [ref] "Wannier90 as a community code:            |
             |        new features and applications",            |
             |        G. Pizzi et al., J. Phys. Cond. Matt. 32,  |
             |        165902 (2020).                             |
             |        http://doi.org/10.1088/1361-648X/ab51ff    |
             |                                                   |
             |  in any publications arising from the use of      |
             |  this code. For the method please cite            |
             |                                                   |
             |  [ref] "Maximally Localized Generalised Wannier   |
             |         Functions for Composite Energy Bands"     |
             |         N. Marzari and D. Vanderbilt              |
             |         Phys. Rev. B 56 12847 (1997)              |
             |                                                   |
             |  [ref] "Maximally Localized Wannier Functions     |
             |         for Entangled Energy Bands"               |
             |         I. Souza, N. Marzari and D. Vanderbilt    |
             |         Phys. Rev. B 65 035109 (2001)             |
             |                                                   |
             |                                                   |
             | Copyright (c) 1996-2020                           |
             |        The Wannier90 Developer Group and          |
             |        individual contributors                    |
             |                                                   |
             |      Release: 3.1.0        5th March    2020      |
             |                                                   |
             | This program is free software; you can            |
             | redistribute it and/or modify it under the terms  |
             | of the GNU General Public License as published by |
             | the Free Software Foundation; either version 2 of |
             | the License, or (at your option) any later version|
             |                                                   |
             | This program is distributed in the hope that it   |
             | will be useful, but WITHOUT ANY WARRANTY; without |
             | even the implied warranty of MERCHANTABILITY or   |
             | FITNESS FOR A PARTICULAR PURPOSE. See the GNU     |
             | General Public License for more details.          |
             |                                                   |
             | You should have received a copy of the GNU General|
             | Public License along with this program; if not,   |
             | write to the Free Software Foundation, Inc.,      |
             | 675 Mass Ave, Cambridge, MA 02139, USA.           |
             |                                                   |
             +---------------------------------------------------+
             |    Execution started on 17Sep2024 at 15:13:24     |
             +---------------------------------------------------+
 
 ******************************************************************************
 * -> Using CODATA 2006 constant values                                       *
 *    (http://physics.nist.gov/cuu/Constants/index.html)                      *
 * -> Using Bohr value from CODATA                                            *
 ******************************************************************************

 Running in serial (with parallel executable)
 
                                    ------
                                    SYSTEM
                                    ------
 
                              Lattice Vectors (Ang)
                    a_1    -1.805023   0.000000   1.805023
                    a_2     0.000000   1.805023   1.805023
                    a_3    -1.805023   1.805023   0.000000
 
                   Unit Cell Volume:      11.76193  (Ang^3)
 
                        Reciprocal-Space Vectors (Ang^-1)
                    b_1    -1.740472  -1.740472   1.740472
                    b_2     1.740472   1.740472   1.740472
                    b_3    -1.740472   1.740472  -1.740472
  
 *----------------------------------------------------------------------------*
 |   Site       Fractional Coordinate          Cartesian Coordinate (Ang)     |
 +----------------------------------------------------------------------------+
 | cu   1   0.00000   0.00000   0.00000   |    0.00000   0.00000   0.00000    |
 *----------------------------------------------------------------------------*
                                ------------
                                K-POINT GRID
                                ------------
  
             Grid size =  4 x  4 x  4      Total points =   64
  
  
 *---------------------------------- MAIN ------------------------------------*
 |  Number of Wannier Functions               :                 7             |
 |  Number of Objective Wannier Functions     :                 7             |
 |  Number of input Bloch states              :                12             |
 |  Output verbosity (1=low, 5=high)          :                 1             |
 |  Timing Level (1=low, 5=high)              :                 1             |
 |  Optimisation (0=memory, 3=speed)          :                 3             |
 |  Length Unit                               :               Ang             |
 |  Post-processing setup (write *.nnkp)      :                 F             |
 |  Using Gamma-only branch of algorithms     :                 F             |
 *----------------------------------------------------------------------------*
 *------------------------------- WANNIERISE ---------------------------------*
 |  Total number of iterations                :              2000             |
 |  Number of CG steps before reset           :                 5             |
 |  Trial step length for line search         :             2.000             |
 |  Convergence tolerence                     :         0.100E-09             |
 |  Convergence window                        :                -1             |
 |  Iterations between writing output         :                 1             |
 |  Iterations between backing up to disk     :               100             |
 |  Write r^2_nm to file                      :                 F             |
 |  Write xyz WF centres to file              :                 F             |
 |  Write on-site energies <0n|H|0n> to file  :                 F             |
 |  Use guiding centre to control phases      :                 F             |
 |  Use phases for initial projections        :                 F             |
 *----------------------------------------------------------------------------*
 *------------------------------- DISENTANGLE --------------------------------*
 |  Using band disentanglement                :                 T             |
 |  Total number of iterations                :               200             |
 |  Mixing ratio                              :             0.500             |
 |  Convergence tolerence                     :         1.000E-10             |
 |  Convergence window                        :                 3             |
 *----------------------------------------------------------------------------*

 *---------------------------------- K-MESH ----------------------------------*
 +----------------------------------------------------------------------------+
 |                    Distance to Nearest-Neighbour Shells                    |
 |                    ------------------------------------                    |
 |          Shell             Distance (Ang^-1)          Multiplicity         |
 |          -----             -----------------          ------------         |
 |             1                   0.753646                      8            |
 |             2                   0.870236                      6            |
 |             3                   1.230700                     12            |
 |             4                   1.443123                     24            |
 |             5                   1.507293                      8            |
 |             6                   1.740472                      6            |
 |             7                   1.896635                     24            |
 |             8                   1.945907                     24            |
 |             9                   2.131634                     24            |
 |            10                   2.260939                     32            |
 |            11                   2.461399                     12            |
 |            12                   2.574193                     48            |
 |            13                   2.610708                     30            |
 |            14                   2.751928                     24            |
 |            15                   2.853259                     24            |
 |            16                   2.886246                     24            |
 |            17                   3.014586                      8            |
 |            18                   3.107364                     48            |
 |            19                   3.137680                     24            |
 |            20                   3.256125                     48            |
 |            21                   3.342205                     72            |
 |            22                   3.480944                      6            |
 |            23                   3.561594                     24            |
 |            24                   3.588075                     48            |
 |            25                   3.692099                     36            |
 |            26                   3.768232                     56            |
 |            27                   3.793271                     24            |
 |            28                   3.891814                     24            |
 |            29                   3.964113                     72            |
 |            30                   3.987922                     48            |
 |            31                   4.081768                     24            |
 |            32                   4.150761                     48            |
 |            33                   4.263268                     24            |
 |            34                   4.329369                     72            |
 |            35                   4.351180                     30            |
 |            36                   4.437350                     72            |
 +----------------------------------------------------------------------------+
 | The b-vectors are chosen automatically                                     |
 | The following shells and their multiples are used:   1                     |
 +----------------------------------------------------------------------------+
 |                        Shell   # Nearest-Neighbours                        |
 |                        -----   --------------------                        |
 |                          1               8                                 |
 +----------------------------------------------------------------------------+
 | Completeness relation is fully satisfied [Eq. (B1), PRB 56, 12847 (1997)]  |
 +----------------------------------------------------------------------------+
 |                  b_k Vectors (Ang^-1) and Weights (Ang^2)                  |
 |                  ----------------------------------------                  |
 |            No.         b_k(x)      b_k(y)      b_k(z)        w_b           |
 |            ---        --------------------------------     --------        |
 |             1         0.435118    0.435118    0.435118     0.660231        |
 |             2        -0.435118   -0.435118    0.435118     0.660231        |
 |             3        -0.435118    0.435118   -0.435118     0.660231        |
 |             4        -0.435118    0.435118    0.435118     0.660231        |
 |             5         0.435118   -0.435118    0.435118     0.660231        |
 |             6        -0.435118   -0.435118   -0.435118     0.660231        |
 |             7         0.435118    0.435118   -0.435118     0.660231        |
 |             8         0.435118   -0.435118   -0.435118     0.660231        |
 +----------------------------------------------------------------------------+
 |                           b_k Directions (Ang^-1)                          |
 |                           -----------------------                          |
 |            No.           x           y           z                         |
 |            ---        --------------------------------                     |
 |             1         0.435118    0.435118    0.435118                     |
 |             2        -0.435118   -0.435118    0.435118                     |
 |             3        -0.435118    0.435118   -0.435118                     |
 |             4        -0.435118    0.435118    0.435118                     |
 +----------------------------------------------------------------------------+
  
 Starting a new Wannier90 calculation ...


 Reading overlaps from copper.mmn    :        73728

 Reading projections from copper.amn :         5376

 *------------------------------- DISENTANGLE --------------------------------*
 +----------------------------------------------------------------------------+
 |                              Energy  Windows                               |
 |                              ---------------                               |
 |                   Outer:    2.81741  to   54.27756  (eV)                   |
 |                   Inner:    2.81741  to   13.00000  (eV)                   |
 +----------------------------------------------------------------------------+
   Number of target bands to extract:    7

                   Unitarised projection of Wannier functions                  
                   ------------------------------------------                  
   A_mn = <psi_m|g_n> --> S = A.A^+ --> U = S^-1/2.A
   In dis_project... done
   Using an inner window (linner = T)
   In dis_proj_froz... done

                   Extraction of optimally-connected subspace                  
                   ------------------------------------------                  
 +---------------------------------------------------------------------+<-- DIS
 |  Iter     Omega_I(i-1)      Omega_I(i)      Delta (frac.)    Time   |<-- DIS
 +---------------------------------------------------------------------+<-- DIS
       1       3.84410180       3.46295213       1.101E-01      0.00    <-- DIS
       2       3.49950140       3.43942272       1.747E-02      0.00    <-- DIS
       3       3.46336304       3.42893232       1.004E-02      0.01    <-- DIS
       4       3.44247775       3.42372610       5.477E-03      0.01    <-- DIS
       5       3.43060598       3.42106498       2.789E-03      0.02    <-- DIS
       6       3.42404994       3.41968615       1.276E-03      0.02    <-- DIS
       7       3.42056651       3.41896596       4.681E-04      0.03    <-- DIS
       8       3.41881167       3.41858789       6.546E-05      0.03    <-- DIS
       9       3.41799877       3.41838878      -1.141E-04      0.03    <-- DIS
      10       3.41767917       3.41828371      -1.769E-04      0.04    <-- DIS
      11       3.41760407       3.41822819      -1.826E-04      0.04    <-- DIS
      12       3.41763969       3.41819883      -1.636E-04      0.05    <-- DIS
      13       3.41771698       3.41818329      -1.364E-04      0.05    <-- DIS
      14       3.41780227       3.41817507      -1.091E-04      0.06    <-- DIS
      15       3.41788066       3.41817071      -8.486E-05      0.06    <-- DIS
      16       3.41794685       3.41816841      -6.482E-05      0.06    <-- DIS
      17       3.41800011       3.41816719      -4.888E-05      0.07    <-- DIS
      18       3.41804171       3.41816654      -3.652E-05      0.07    <-- DIS
      19       3.41807356       3.41816620      -2.710E-05      0.08    <-- DIS
      20       3.41809761       3.41816602      -2.001E-05      0.08    <-- DIS
      21       3.41811559       3.41816592      -1.473E-05      0.09    <-- DIS
      22       3.41812894       3.41816587      -1.081E-05      0.09    <-- DIS
      23       3.41813880       3.41816585      -7.912E-06      0.09    <-- DIS
      24       3.41814606       3.41816583      -5.785E-06      0.10    <-- DIS
      25       3.41815138       3.41816582      -4.225E-06      0.10    <-- DIS
      26       3.41815528       3.41816582      -3.083E-06      0.11    <-- DIS
      27       3.41815813       3.41816582      -2.248E-06      0.11    <-- DIS
      28       3.41816022       3.41816582      -1.638E-06      0.12    <-- DIS
      29       3.41816174       3.41816582      -1.194E-06      0.12    <-- DIS
      30       3.41816284       3.41816582      -8.695E-07      0.12    <-- DIS
      31       3.41816365       3.41816582      -6.332E-07      0.13    <-- DIS
      32       3.41816424       3.41816582      -4.610E-07      0.13    <-- DIS
      33       3.41816467       3.41816582      -3.356E-07      0.14    <-- DIS
      34       3.41816498       3.41816582      -2.443E-07      0.14    <-- DIS
      35       3.41816521       3.41816582      -1.778E-07      0.15    <-- DIS
      36       3.41816537       3.41816582      -1.294E-07      0.15    <-- DIS
      37       3.41816549       3.41816582      -9.421E-08      0.15    <-- DIS
      38       3.41816558       3.41816582      -6.857E-08      0.16    <-- DIS
      39       3.41816564       3.41816582      -4.991E-08      0.16    <-- DIS
      40       3.41816569       3.41816582      -3.632E-08      0.17    <-- DIS
      41       3.41816572       3.41816582      -2.643E-08      0.17    <-- DIS
      42       3.41816575       3.41816582      -1.924E-08      0.17    <-- DIS
      43       3.41816577       3.41816582      -1.400E-08      0.18    <-- DIS
      44       3.41816578       3.41816582      -1.019E-08      0.18    <-- DIS
      45       3.41816579       3.41816582      -7.415E-09      0.19    <-- DIS
      46       3.41816580       3.41816582      -5.396E-09      0.19    <-- DIS
      47       3.41816580       3.41816582      -3.927E-09      0.20    <-- DIS
      48       3.41816581       3.41816582      -2.858E-09      0.20    <-- DIS
      49       3.41816581       3.41816582      -2.080E-09      0.20    <-- DIS
      50       3.41816581       3.41816582      -1.514E-09      0.21    <-- DIS
      51       3.41816581       3.41816582      -1.101E-09      0.21    <-- DIS
      52       3.41816581       3.41816582      -8.016E-10      0.22    <-- DIS
      53       3.41816581       3.41816582      -5.833E-10      0.22    <-- DIS
      54       3.41816581       3.41816582      -4.245E-10      0.23    <-- DIS
      55       3.41816581       3.41816582      -3.089E-10      0.23    <-- DIS
      56       3.41816581       3.41816582      -2.248E-10      0.23    <-- DIS
      57       3.41816581       3.41816582      -1.636E-10      0.24    <-- DIS
      58       3.41816581       3.41816582      -1.191E-10      0.24    <-- DIS
      59       3.41816581       3.41816582      -8.665E-11      0.25    <-- DIS
      60       3.41816581       3.41816582      -6.306E-11      0.25    <-- DIS
      61       3.41816581       3.41816582      -4.589E-11      0.26    <-- DIS

             <<<      Delta < 1.000E-10  over  3 iterations     >>>
             <<< Disentanglement convergence criteria satisfied >>>

        Final Omega_I     3.41816582 (Ang^2)

 +----------------------------------------------------------------------------+


 Writing checkpoint file copper.chk... done

 
 *------------------------------- WANNIERISE ---------------------------------*
 +--------------------------------------------------------------------+<-- CONV
 | Iter  Delta Spread     RMS Gradient      Spread (Ang^2)      Time  |<-- CONV
 +--------------------------------------------------------------------+<-- CONV
 
 ------------------------------------------------------------------------------
 Initial State
  WF centre and spread    1  (  0.000000,  0.000000, -0.000000 )     0.41800726
  WF centre and spread    2  ( -0.000000,  0.000000,  0.000000 )     0.36549464
  WF centre and spread    3  ( -0.000000,  0.000000, -0.000000 )     0.36549476
  WF centre and spread    4  (  0.000000, -0.000000,  0.000000 )     0.41801967
  WF centre and spread    5  ( -0.000000,  0.000000,  0.000000 )     0.36548737
  WF centre and spread    6  ( -0.902512,  0.902511,  0.902512 )     1.16491036
  WF centre and spread    7  (  0.902512, -0.902512, -0.902512 )     1.16491040
  Sum of centres and spreads (  0.000001, -0.000001,  0.000000 )     4.26232446
 
      0     0.426E+01     0.0000000000        4.2623244617       0.26  <-- CONV
        O_D=      0.0189881 O_OD=      0.8251705 O_TOT=      4.2623245 <-- SPRD
 ------------------------------------------------------------------------------
 Cycle:      1
  WF centre and spread    1  (  0.000000,  0.000000, -0.000000 )     0.41624690
  WF centre and spread    2  ( -0.000000, -0.000000,  0.000000 )     0.30969812
  WF centre and spread    3  ( -0.000000, -0.000000, -0.000000 )     0.30969828
  WF centre and spread    4  ( -0.000000, -0.000000,  0.000000 )     0.41627554
  WF centre and spread    5  ( -0.000000,  0.000000,  0.000000 )     0.30970203
  WF centre and spread    6  ( -0.902511,  0.902511,  0.902512 )     1.08233568
  WF centre and spread    7  (  0.902512, -0.902512, -0.902512 )     1.08233573
  Sum of centres and spreads (  0.000001, -0.000001,  0.000000 )     3.92629228
 
      1    -0.336E+00     0.3143118722        3.9262922836       0.27  <-- CONV
        O_D=      0.0246482 O_OD=      0.4834782 O_TOT=      3.9262923 <-- SPRD
 Delta: O_D=  0.5660127E-02 O_OD= -0.3416923E+00 O_TOT= -0.3360322E+00 <-- DLTA
 ------------------------------------------------------------------------------
 Cycle:      2
  WF centre and spread    1  ( -0.000000,  0.000000, -0.000000 )     0.41819464
  WF centre and spread    2  ( -0.000000, -0.000000,  0.000000 )     0.29573879
  WF centre and spread    3  (  0.000000, -0.000000,  0.000000 )     0.29573891
  WF centre and spread    4  ( -0.000000,  0.000000,  0.000000 )     0.41822357
  WF centre and spread    5  (  0.000000,  0.000000,  0.000000 )     0.29574332
  WF centre and spread    6  ( -0.902511,  0.902512,  0.902512 )     1.02663472
  WF centre and spread    7  (  0.902512, -0.902512, -0.902512 )     1.02663476
  Sum of centres and spreads (  0.000001, -0.000001,  0.000000 )     3.77690871
 
      2    -0.149E+00     0.2483416508        3.7769087128       0.28  <-- CONV
        O_D=      0.0034117 O_OD=      0.3553312 O_TOT=      3.7769087 <-- SPRD
 Delta: O_D= -0.2123655E-01 O_OD= -0.1281470E+00 O_TOT= -0.1493836E+00 <-- DLTA
 ------------------------------------------------------------------------------
 Cycle:      3
  WF centre and spread    1  ( -0.000000,  0.000000, -0.000000 )     0.41165531
  WF centre and spread    2  ( -0.000000, -0.000000,  0.000000 )     0.29617872
  WF centre and spread    3  (  0.000000, -0.000000,  0.000000 )     0.29617881
  WF centre and spread    4  ( -0.000000,  0.000000,  0.000000 )     0.41165299
  WF centre and spread    5  (  0.000000,  0.000000,  0.000000 )     0.29617810
  WF centre and spread    6  ( -0.902511,  0.902512,  0.902512 )     1.00522968
  WF centre and spread    7  (  0.902512, -0.902512, -0.902512 )     1.00522971
  Sum of centres and spreads (  0.000001, -0.000001,  0.000000 )     3.72230332
 
      3    -0.546E-01     0.1619343781        3.7223033238       0.28  <-- CONV
        O_D=      0.0043644 O_OD=      0.2997732 O_TOT=      3.7223033 <-- SPRD
 Delta: O_D=  0.9526688E-03 O_OD= -0.5555806E-01 O_TOT= -0.5460539E-01 <-- DLTA
 ------------------------------------------------------------------------------
 Cycle:      4
  WF centre and spread    1  ( -0.000000,  0.000000, -0.000000 )     0.40999402
  WF centre and spread    2  (  0.000000, -0.000000,  0.000000 )     0.29683835
  WF centre and spread    3  (  0.000000, -0.000000,  0.000000 )     0.29683845
  WF centre and spread    4  ( -0.000000,  0.000000,  0.000000 )     0.40998987
  WF centre and spread    5  (  0.000000,  0.000000, -0.000000 )     0.29683706
  WF centre and spread    6  ( -0.902511,  0.902512,  0.902512 )     1.00120971
  WF centre and spread    7  (  0.902512, -0.902512, -0.902512 )     1.00120974
  Sum of centres and spreads (  0.000001, -0.000001,  0.000000 )     3.71291718
 
      4    -0.939E-02     0.0745014533        3.7129171824       0.29  <-- CONV
        O_D=      0.0014318 O_OD=      0.2933196 O_TOT=      3.7129172 <-- SPRD
 Delta: O_D= -0.2932568E-02 O_OD= -0.6453573E-02 O_TOT= -0.9386141E-02 <-- DLTA
 ------------------------------------------------------------------------------
 Cycle:      5
  WF centre and spread    1  ( -0.000000,  0.000000, -0.000000 )     0.40985516
  WF centre and spread    2  (  0.000000, -0.000000,  0.000000 )     0.29682001
  WF centre and spread    3  (  0.000000, -0.000000,  0.000000 )     0.29682010
  WF centre and spread    4  ( -0.000000,  0.000000,  0.000000 )     0.40985313
  WF centre and spread    5  (  0.000000,  0.000000, -0.000000 )     0.29681842
  WF centre and spread    6  ( -0.902511,  0.902512,  0.902512 )     1.00122089
  WF centre and spread    7  (  0.902512, -0.902512, -0.902512 )     1.00122092
  Sum of centres and spreads (  0.000001, -0.000001,  0.000000 )     3.71260863
 
      5    -0.309E-03     0.0155165160        3.7126086316       0.30  <-- CONV
        O_D=      0.0013922 O_OD=      0.2930507 O_TOT=      3.7126086 <-- SPRD
 Delta: O_D= -0.3962607E-04 O_OD= -0.2689247E-03 O_TOT= -0.3085508E-03 <-- DLTA
 ------------------------------------------------------------------------------
 Cycle:      6
  WF centre and spread    1  ( -0.000000,  0.000000, -0.000000 )     0.40983282
  WF centre and spread    2  (  0.000000, -0.000000,  0.000000 )     0.29675555
  WF centre and spread    3  (  0.000000, -0.000000,  0.000000 )     0.29675565
  WF centre and spread    4  ( -0.000000,  0.000000,  0.000000 )     0.40983211
  WF centre and spread    5  (  0.000000,  0.000000, -0.000000 )     0.29675406
  WF centre and spread    6  ( -0.902511,  0.902512,  0.902512 )     1.00132983
  WF centre and spread    7  (  0.902512, -0.902512, -0.902512 )     1.00132986
  Sum of centres and spreads (  0.000001, -0.000001,  0.000000 )     3.71258988
 
      6    -0.187E-04     0.0032292094        3.7125898842       0.30  <-- CONV
        O_D=      0.0013972 O_OD=      0.2930269 O_TOT=      3.7125899 <-- SPRD
 Delta: O_D=  0.5006888E-05 O_OD= -0.2375426E-04 O_TOT= -0.1874737E-04 <-- DLTA
 ------------------------------------------------------------------------------
 Cycle:      7
  WF centre and spread    1  ( -0.000000,  0.000000, -0.000000 )     0.40983442
  WF centre and spread    2  (  0.000000, -0.000000,  0.000000 )     0.29667502
  WF centre and spread    3  (  0.000000, -0.000000,  0.000000 )     0.29667512
  WF centre and spread    4  ( -0.000000,  0.000000,  0.000000 )     0.40983411
  WF centre and spread    5  (  0.000000,  0.000000, -0.000000 )     0.29667364
  WF centre and spread    6  ( -0.902511,  0.902512,  0.902512 )     1.00144631
  WF centre and spread    7  (  0.902512, -0.902512, -0.902512 )     1.00144634
  Sum of centres and spreads (  0.000001, -0.000001,  0.000000 )     3.71258496
 
      7    -0.493E-05     0.0013601349        3.7125849554       0.31  <-- CONV
        O_D=      0.0014011 O_OD=      0.2930181 O_TOT=      3.7125850 <-- SPRD
 Delta: O_D=  0.3905281E-05 O_OD= -0.8834146E-05 O_TOT= -0.4928865E-05 <-- DLTA
 ------------------------------------------------------------------------------
 Cycle:      8
  WF centre and spread    1  ( -0.000000,  0.000000, -0.000000 )     0.40983283
  WF centre and spread    2  (  0.000000, -0.000000,  0.000000 )     0.29655106
  WF centre and spread    3  ( -0.000000, -0.000000,  0.000000 )     0.29655116
  WF centre and spread    4  ( -0.000000,  0.000000,  0.000000 )     0.40983317
  WF centre and spread    5  (  0.000000,  0.000000, -0.000000 )     0.29654987
  WF centre and spread    6  ( -0.902511,  0.902512,  0.902512 )     1.00163119
  WF centre and spread    7  (  0.902512, -0.902512, -0.902512 )     1.00163122
  Sum of centres and spreads (  0.000001, -0.000001,  0.000000 )     3.71258050
 
      8    -0.446E-05     0.0011337016        3.7125804957       0.32  <-- CONV
        O_D=      0.0014074 O_OD=      0.2930073 O_TOT=      3.7125805 <-- SPRD
 Delta: O_D=  0.6281310E-05 O_OD= -0.1074098E-04 O_TOT= -0.4459666E-05 <-- DLTA
 ------------------------------------------------------------------------------
 Cycle:      9
  WF centre and spread    1  ( -0.000000,  0.000000, -0.000000 )     0.40983190
  WF centre and spread    2  (  0.000000, -0.000000,  0.000000 )     0.29653532
  WF centre and spread    3  ( -0.000000, -0.000000,  0.000000 )     0.29653542
  WF centre and spread    4  ( -0.000000,  0.000000,  0.000000 )     0.40983210
  WF centre and spread    5  (  0.000000,  0.000000, -0.000000 )     0.29653415
  WF centre and spread    6  ( -0.902511,  0.902512,  0.902512 )     1.00165558
  WF centre and spread    7  (  0.902512, -0.902512, -0.902512 )     1.00165561
  Sum of centres and spreads (  0.000001, -0.000001,  0.000000 )     3.71258008
 
      9    -0.413E-06     0.0005007152        3.7125800823       0.33  <-- CONV
        O_D=      0.0014078 O_OD=      0.2930064 O_TOT=      3.7125801 <-- SPRD
 Delta: O_D=  0.4724588E-06 O_OD= -0.8859079E-06 O_TOT= -0.4134491E-06 <-- DLTA
 ------------------------------------------------------------------------------
 Cycle:     10
  WF centre and spread    1  ( -0.000000,  0.000000, -0.000000 )     0.40983262
  WF centre and spread    2  (  0.000000, -0.000000,  0.000000 )     0.29652962
  WF centre and spread    3  ( -0.000000, -0.000000,  0.000000 )     0.29652971
  WF centre and spread    4  ( -0.000000,  0.000000,  0.000000 )     0.40983261
  WF centre and spread    5  (  0.000000,  0.000000, -0.000000 )     0.29652845
  WF centre and spread    6  ( -0.902511,  0.902512,  0.902512 )     1.00166349
  WF centre and spread    7  (  0.902512, -0.902512, -0.902512 )     1.00166351
  Sum of centres and spreads (  0.000001, -0.000001,  0.000000 )     3.71258000
 
     10    -0.775E-07     0.0001905626        3.7125800047       0.33  <-- CONV
        O_D=      0.0014078 O_OD=      0.2930064 O_TOT=      3.7125800 <-- SPRD
 Delta: O_D= -0.4630068E-07 O_OD= -0.3123845E-07 O_TOT= -0.7753913E-07 <-- DLTA
 ------------------------------------------------------------------------------
 Cycle:     11
  WF centre and spread    1  ( -0.000000,  0.000000, -0.000000 )     0.40983319
  WF centre and spread    2  (  0.000000, -0.000000,  0.000000 )     0.29652891
  WF centre and spread    3  ( -0.000000, -0.000000,  0.000000 )     0.29652900
  WF centre and spread    4  ( -0.000000,  0.000000,  0.000000 )     0.40983310
  WF centre and spread    5  (  0.000000,  0.000000, -0.000000 )     0.29652775
  WF centre and spread    6  ( -0.902511,  0.902512,  0.902512 )     1.00166401
  WF centre and spread    7  (  0.902512, -0.902512, -0.902512 )     1.00166403
  Sum of centres and spreads (  0.000001, -0.000001,  0.000000 )     3.71258000
 
     11    -0.797E-08     0.0000683287        3.7125799968       0.34  <-- CONV
        O_D=      0.0014078 O_OD=      0.2930064 O_TOT=      3.7125800 <-- SPRD
 Delta: O_D= -0.9903403E-08 O_OD=  0.1936365E-08 O_TOT= -0.7967038E-08 <-- DLTA
 ------------------------------------------------------------------------------
 Cycle:     12
  WF centre and spread    1  ( -0.000000,  0.000000, -0.000000 )     0.40983330
  WF centre and spread    2  (  0.000000, -0.000000,  0.000000 )     0.29652887
  WF centre and spread    3  ( -0.000000, -0.000000,  0.000000 )     0.29652896
  WF centre and spread    4  ( -0.000000,  0.000000,  0.000000 )     0.40983320
  WF centre and spread    5  (  0.000000,  0.000000, -0.000000 )     0.29652771
  WF centre and spread    6  ( -0.902511,  0.902512,  0.902512 )     1.00166396
  WF centre and spread    7  (  0.902512, -0.902512, -0.902512 )     1.00166399
  Sum of centres and spreads (  0.000001, -0.000001,  0.000000 )     3.71258000
 
     12    -0.364E-09     0.0000181960        3.7125799964       0.35  <-- CONV
        O_D=      0.0014078 O_OD=      0.2930064 O_TOT=      3.7125800 <-- SPRD
 Delta: O_D=  0.9653721E-08 O_OD= -0.1001763E-07 O_TOT= -0.3639116E-09 <-- DLTA
 ------------------------------------------------------------------------------
 Cycle:     13
  WF centre and spread    1  ( -0.000000,  0.000000, -0.000000 )     0.40983336
  WF centre and spread    2  (  0.000000, -0.000000,  0.000000 )     0.29652886
  WF centre and spread    3  ( -0.000000, -0.000000,  0.000000 )     0.29652896
  WF centre and spread    4  ( -0.000000,  0.000000,  0.000000 )     0.40983325
  WF centre and spread    5  (  0.000000,  0.000000, -0.000000 )     0.29652770
  WF centre and spread    6  ( -0.902511,  0.902512,  0.902512 )     1.00166391
  WF centre and spread    7  (  0.902512, -0.902512, -0.902512 )     1.00166394
  Sum of centres and spreads (  0.000001, -0.000001,  0.000000 )     3.71258000
 
     13    -0.401E-10     0.0000054364        3.7125799964       0.35  <-- CONV
        O_D=      0.0014078 O_OD=      0.2930064 O_TOT=      3.7125800 <-- SPRD
 Delta: O_D=  0.9262177E-08 O_OD= -0.9302266E-08 O_TOT= -0.4008971E-10 <-- DLTA
 ------------------------------------------------------------------------------
 Cycle:     14
  WF centre and spread    1  ( -0.000000,  0.000000, -0.000000 )     0.40983339
  WF centre and spread    2  (  0.000000, -0.000000,  0.000000 )     0.29652886
  WF centre and spread    3  ( -0.000000, -0.000000,  0.000000 )     0.29652896
  WF centre and spread    4  ( -0.000000,  0.000000,  0.000000 )     0.40983328
  WF centre and spread    5  (  0.000000,  0.000000, -0.000000 )     0.29652770
  WF centre and spread    6  ( -0.902511,  0.902512,  0.902512 )     1.00166388
  WF centre and spread    7  (  0.902512, -0.902512, -0.902512 )     1.00166391
  Sum of centres and spreads (  0.000001, -0.000001,  0.000000 )     3.71258000
 
     14    -0.111E-10     0.0000029028        3.7125799963       0.36  <-- CONV
        O_D=      0.0014078 O_OD=      0.2930064 O_TOT=      3.7125800 <-- SPRD
 Delta: O_D=  0.6106780E-08 O_OD= -0.6117888E-08 O_TOT= -0.1110845E-10 <-- DLTA
 ------------------------------------------------------------------------------
 Cycle:     15
  WF centre and spread    1  ( -0.000000,  0.000000, -0.000000 )     0.40983341
  WF centre and spread    2  (  0.000000, -0.000000,  0.000000 )     0.29652886
  WF centre and spread    3  ( -0.000000, -0.000000,  0.000000 )     0.29652896
  WF centre and spread    4  ( -0.000000,  0.000000,  0.000000 )     0.40983331
  WF centre and spread    5  (  0.000000,  0.000000, -0.000000 )     0.29652770
  WF centre and spread    6  ( -0.902511,  0.902512,  0.902512 )     1.00166386
  WF centre and spread    7  (  0.902512, -0.902512, -0.902512 )     1.00166389
  Sum of centres and spreads (  0.000001, -0.000001,  0.000000 )     3.71258000
 
     15    -0.872E-12     0.0000008345        3.7125799963       0.37  <-- CONV
        O_D=      0.0014078 O_OD=      0.2930064 O_TOT=      3.7125800 <-- SPRD
 Delta: O_D=  0.4128273E-08 O_OD= -0.4129145E-08 O_TOT= -0.8717471E-12 <-- DLTA
 ------------------------------------------------------------------------------
 Cycle:     16
  WF centre and spread    1  ( -0.000000,  0.000000, -0.000000 )     0.40983342
  WF centre and spread    2  (  0.000000, -0.000000,  0.000000 )     0.29652886
  WF centre and spread    3  ( -0.000000, -0.000000,  0.000000 )     0.29652896
  WF centre and spread    4  ( -0.000000,  0.000000,  0.000000 )     0.40983331
  WF centre and spread    5  (  0.000000,  0.000000, -0.000000 )     0.29652770
  WF centre and spread    6  ( -0.902511,  0.902512,  0.902512 )     1.00166386
  WF centre and spread    7  (  0.902512, -0.902512, -0.902512 )     1.00166389
  Sum of centres and spreads (  0.000001, -0.000001,  0.000000 )     3.71258000
 
     16    -0.117E-12     0.0000008693        3.7125799963       0.37  <-- CONV
        O_D=      0.0014078 O_OD=      0.2930064 O_TOT=      3.7125800 <-- SPRD
 Delta: O_D=  0.5426166E-09 O_OD= -0.5427336E-09 O_TOT= -0.1172396E-12 <-- DLTA
 ------------------------------------------------------------------------------
 Cycle:     17
  WF centre and spread    1  ( -0.000000,  0.000000, -0.000000 )     0.40983342
  WF centre and spread    2  (  0.000000, -0.000000,  0.000000 )     0.29652886
  WF centre and spread    3  ( -0.000000, -0.000000,  0.000000 )     0.29652896
  WF centre and spread    4  ( -0.000000,  0.000000,  0.000000 )     0.40983331
  WF centre and spread    5  (  0.000000,  0.000000, -0.000000 )     0.29652770
  WF centre and spread    6  ( -0.902511,  0.902512,  0.902512 )     1.00166386
  WF centre and spread    7  (  0.902512, -0.902512, -0.902512 )     1.00166389
  Sum of centres and spreads (  0.000001, -0.000001,  0.000000 )     3.71258000
 
     17    -0.274E-12     0.0000007564        3.7125799963       0.38  <-- CONV
        O_D=      0.0014078 O_OD=      0.2930064 O_TOT=      3.7125800 <-- SPRD
 Delta: O_D=  0.3740369E-09 O_OD= -0.3743112E-09 O_TOT= -0.2740030E-12 <-- DLTA
 ------------------------------------------------------------------------------
 Cycle:     18
  WF centre and spread    1  ( -0.000000,  0.000000, -0.000000 )     0.40983342
  WF centre and spread    2  (  0.000000, -0.000000,  0.000000 )     0.29652886
  WF centre and spread    3  ( -0.000000, -0.000000,  0.000000 )     0.29652896
  WF centre and spread    4  ( -0.000000,  0.000000,  0.000000 )     0.40983331
  WF centre and spread    5  (  0.000000,  0.000000, -0.000000 )     0.29652770
  WF centre and spread    6  ( -0.902511,  0.902512,  0.902512 )     1.00166386
  WF centre and spread    7  (  0.902512, -0.902512, -0.902512 )     1.00166389
  Sum of centres and spreads (  0.000001, -0.000001,  0.000000 )     3.71258000
 
     18    -0.258E-13     0.0000004272        3.7125799963       0.38  <-- CONV
        O_D=      0.0014078 O_OD=      0.2930064 O_TOT=      3.7125800 <-- SPRD
 Delta: O_D= -0.7982224E-12 O_OD=  0.7723822E-12 O_TOT= -0.2575717E-13 <-- DLTA
 ------------------------------------------------------------------------------
 Cycle:     19
  WF centre and spread    1  ( -0.000000,  0.000000, -0.000000 )     0.40983342
  WF centre and spread    2  (  0.000000, -0.000000,  0.000000 )     0.29652886
  WF centre and spread    3  ( -0.000000, -0.000000,  0.000000 )     0.29652896
  WF centre and spread    4  ( -0.000000,  0.000000,  0.000000 )     0.40983331
  WF centre and spread    5  (  0.000000,  0.000000, -0.000000 )     0.29652770
  WF centre and spread    6  ( -0.902511,  0.902512,  0.902512 )     1.00166386
  WF centre and spread    7  (  0.902512, -0.902512, -0.902512 )     1.00166389
  Sum of centres and spreads (  0.000001, -0.000001,  0.000000 )     3.71258000
 
     19    -0.435E-13     0.0000003931        3.7125799963       0.39  <-- CONV
        O_D=      0.0014078 O_OD=      0.2930064 O_TOT=      3.7125800 <-- SPRD
 Delta: O_D= -0.6677778E-10 O_OD=  0.6673417E-10 O_TOT= -0.4352074E-13 <-- DLTA
 ------------------------------------------------------------------------------
 Cycle:     20
  WF centre and spread    1  ( -0.000000,  0.000000, -0.000000 )     0.40983342
  WF centre and spread    2  (  0.000000, -0.000000,  0.000000 )     0.29652886
  WF centre and spread    3  ( -0.000000, -0.000000,  0.000000 )     0.29652896
  WF centre and spread    4  ( -0.000000,  0.000000,  0.000000 )     0.40983331
  WF centre and spread    5  (  0.000000,  0.000000, -0.000000 )     0.29652770
  WF centre and spread    6  ( -0.902511,  0.902512,  0.902512 )     1.00166386
  WF centre and spread    7  (  0.902512, -0.902512, -0.902512 )     1.00166389
  Sum of centres and spreads (  0.000001, -0.000001,  0.000000 )     3.71258000
 
     20    -0.613E-13     0.0000003341        3.7125799963       0.40  <-- CONV
        O_D=      0.0014078 O_OD=      0.2930064 O_TOT=      3.7125800 <-- SPRD
 Delta: O_D= -0.1225006E-09 O_OD=  0.1224396E-09 O_TOT= -0.6128431E-13 <-- DLTA
 ------------------------------------------------------------------------------
 Cycle:     21
  WF centre and spread    1  ( -0.000000,  0.000000, -0.000000 )     0.40983342
  WF centre and spread    2  (  0.000000, -0.000000,  0.000000 )     0.29652886
  WF centre and spread    3  ( -0.000000, -0.000000,  0.000000 )     0.29652896
  WF centre and spread    4  ( -0.000000,  0.000000,  0.000000 )     0.40983331
  WF centre and spread    5  (  0.000000,  0.000000, -0.000000 )     0.29652770
  WF centre and spread    6  ( -0.902511,  0.902512,  0.902512 )     1.00166386
  WF centre and spread    7  (  0.902512, -0.902512, -0.902512 )     1.00166389
  Sum of centres and spreads (  0.000001, -0.000001,  0.000000 )     3.71258000
 
     21    -0.440E-13     0.0000002396        3.7125799963       0.40  <-- CONV
        O_D=      0.0014078 O_OD=      0.2930064 O_TOT=      3.7125800 <-- SPRD
 Delta: O_D= -0.1556044E-09 O_OD=  0.1555602E-09 O_TOT= -0.4396483E-13 <-- DLTA
 ------------------------------------------------------------------------------
 Cycle:     22
  WF centre and spread    1  ( -0.000000,  0.000000, -0.000000 )     0.40983342
  WF centre and spread    2  (  0.000000, -0.000000,  0.000000 )     0.29652886
  WF centre and spread    3  ( -0.000000, -0.000000,  0.000000 )     0.29652896
  WF centre and spread    4  ( -0.000000,  0.000000,  0.000000 )     0.40983331
  WF centre and spread    5  (  0.000000,  0.000000, -0.000000 )     0.29652770
  WF centre and spread    6  ( -0.902511,  0.902512,  0.902512 )     1.00166386
  WF centre and spread    7  (  0.902512, -0.902512, -0.902512 )     1.00166389
  Sum of centres and spreads (  0.000001, -0.000001,  0.000000 )     3.71258000
 
     22    -0.138E-13     0.0000001558        3.7125799963       0.41  <-- CONV
        O_D=      0.0014078 O_OD=      0.2930064 O_TOT=      3.7125800 <-- SPRD
 Delta: O_D= -0.8957616E-10 O_OD=  0.8956280E-10 O_TOT= -0.1376677E-13 <-- DLTA
 ------------------------------------------------------------------------------
 Cycle:     23
  WF centre and spread    1  ( -0.000000,  0.000000, -0.000000 )     0.40983342
  WF centre and spread    2  (  0.000000, -0.000000,  0.000000 )     0.29652886
  WF centre and spread    3  ( -0.000000, -0.000000,  0.000000 )     0.29652896
  WF centre and spread    4  ( -0.000000,  0.000000,  0.000000 )     0.40983331
  WF centre and spread    5  (  0.000000,  0.000000, -0.000000 )     0.29652770
  WF centre and spread    6  ( -0.902511,  0.902512,  0.902512 )     1.00166386
  WF centre and spread    7  (  0.902512, -0.902512, -0.902512 )     1.00166389
  Sum of centres and spreads (  0.000001, -0.000001,  0.000000 )     3.71258000
 
     23    -0.533E-14     0.0000001293        3.7125799963       0.41  <-- CONV
        O_D=      0.0014078 O_OD=      0.2930064 O_TOT=      3.7125800 <-- SPRD
 Delta: O_D= -0.3169637E-10 O_OD=  0.3169054E-10 O_TOT= -0.5329071E-14 <-- DLTA
 ------------------------------------------------------------------------------
 Cycle:     24
  WF centre and spread    1  ( -0.000000,  0.000000, -0.000000 )     0.40983342
  WF centre and spread    2  (  0.000000, -0.000000,  0.000000 )     0.29652886
  WF centre and spread    3  ( -0.000000, -0.000000,  0.000000 )     0.29652896
  WF centre and spread    4  ( -0.000000,  0.000000,  0.000000 )     0.40983331
  WF centre and spread    5  (  0.000000,  0.000000, -0.000000 )     0.29652770
  WF centre and spread    6  ( -0.902511,  0.902512,  0.902512 )     1.00166386
  WF centre and spread    7  (  0.902512, -0.902512, -0.902512 )     1.00166389
  Sum of centres and spreads (  0.000001, -0.000001,  0.000000 )     3.71258000
 
     24    -0.666E-14     0.0000001222        3.7125799963       0.42  <-- CONV
        O_D=      0.0014078 O_OD=      0.2930064 O_TOT=      3.7125800 <-- SPRD
 Delta: O_D= -0.4004530E-10 O_OD=  0.4003881E-10 O_TOT= -0.6661338E-14 <-- DLTA
 ------------------------------------------------------------------------------
 Cycle:     25
  WF centre and spread    1  ( -0.000000,  0.000000, -0.000000 )     0.40983342
  WF centre and spread    2  (  0.000000, -0.000000,  0.000000 )     0.29652886
  WF centre and spread    3  ( -0.000000, -0.000000,  0.000000 )     0.29652896
  WF centre and spread    4  ( -0.000000,  0.000000,  0.000000 )     0.40983331
  WF centre and spread    5  (  0.000000,  0.000000, -0.000000 )     0.29652770
  WF centre and spread    6  ( -0.902511,  0.902512,  0.902512 )     1.00166386
  WF centre and spread    7  (  0.902512, -0.902512, -0.902512 )     1.00166389
  Sum of centres and spreads (  0.000001, -0.000001,  0.000000 )     3.71258000
 
     25     0.133E-14     0.0000001139        3.7125799963       0.43  <-- CONV
        O_D=      0.0014078 O_OD=      0.2930064 O_TOT=      3.7125800 <-- SPRD
 Delta: O_D= -0.1735289E-11 O_OD=  0.1736833E-11 O_TOT=  0.1332268E-14 <-- DLTA
 ------------------------------------------------------------------------------
 Cycle:     26
  WF centre and spread    1  ( -0.000000,  0.000000, -0.000000 )     0.40983342
  WF centre and spread    2  (  0.000000, -0.000000,  0.000000 )     0.29652886
  WF centre and spread    3  ( -0.000000, -0.000000,  0.000000 )     0.29652896
  WF centre and spread    4  ( -0.000000,  0.000000,  0.000000 )     0.40983331
  WF centre and spread    5  (  0.000000,  0.000000, -0.000000 )     0.29652770
  WF centre and spread    6  ( -0.902511,  0.902512,  0.902512 )     1.00166386
  WF centre and spread    7  (  0.902512, -0.902512, -0.902512 )     1.00166389
  Sum of centres and spreads (  0.000001, -0.000001,  0.000000 )     3.71258000
 
     26    -0.400E-14     0.0000001135        3.7125799963       0.43  <-- CONV
        O_D=      0.0014078 O_OD=      0.2930064 O_TOT=      3.7125800 <-- SPRD
 Delta: O_D= -0.2189534E-10 O_OD=  0.2189121E-10 O_TOT= -0.3996803E-14 <-- DLTA
 ------------------------------------------------------------------------------
 Cycle:     27
  WF centre and spread    1  ( -0.000000,  0.000000, -0.000000 )     0.40983342
  WF centre and spread    2  (  0.000000, -0.000000,  0.000000 )     0.29652886
  WF centre and spread    3  ( -0.000000, -0.000000,  0.000000 )     0.29652896
  WF centre and spread    4  ( -0.000000,  0.000000,  0.000000 )     0.40983331
  WF centre and spread    5  (  0.000000,  0.000000, -0.000000 )     0.29652770
  WF centre and spread    6  ( -0.902511,  0.902512,  0.902512 )     1.00166386
  WF centre and spread    7  (  0.902512, -0.902512, -0.902512 )     1.00166389
  Sum of centres and spreads (  0.000001, -0.000001,  0.000000 )     3.71258000
 
     27    -0.577E-14     0.0000001088        3.7125799963       0.43  <-- CONV
        O_D=      0.0014078 O_OD=      0.2930064 O_TOT=      3.7125800 <-- SPRD
 Delta: O_D= -0.3067324E-10 O_OD=  0.3066747E-10 O_TOT= -0.5773160E-14 <-- DLTA
 ------------------------------------------------------------------------------
 Cycle:     28
  WF centre and spread    1  ( -0.000000,  0.000000, -0.000000 )     0.40983342
  WF centre and spread    2  (  0.000000, -0.000000,  0.000000 )     0.29652886
  WF centre and spread    3  ( -0.000000, -0.000000,  0.000000 )     0.29652896
  WF centre and spread    4  ( -0.000000,  0.000000,  0.000000 )     0.40983331
  WF centre and spread    5  (  0.000000,  0.000000, -0.000000 )     0.29652770
  WF centre and spread    6  ( -0.902511,  0.902512,  0.902512 )     1.00166386
  WF centre and spread    7  (  0.902512, -0.902512, -0.902512 )     1.00166389
  Sum of centres and spreads (  0.000001, -0.000001,  0.000000 )     3.71258000
 
     28     0.400E-14     0.0000001022        3.7125799963       0.44  <-- CONV
        O_D=      0.0014078 O_OD=      0.2930064 O_TOT=      3.7125800 <-- SPRD
 Delta: O_D= -0.8424070E-11 O_OD=  0.8428036E-11 O_TOT=  0.3996803E-14 <-- DLTA
 ------------------------------------------------------------------------------
 Cycle:     29
  WF centre and spread    1  ( -0.000000,  0.000000, -0.000000 )     0.40983342
  WF centre and spread    2  (  0.000000, -0.000000,  0.000000 )     0.29652886
  WF centre and spread    3  ( -0.000000, -0.000000,  0.000000 )     0.29652896
  WF centre and spread    4  ( -0.000000,  0.000000,  0.000000 )     0.40983331
  WF centre and spread    5  (  0.000000,  0.000000, -0.000000 )     0.29652770
  WF centre and spread    6  ( -0.902511,  0.902512,  0.902512 )     1.00166387
  WF centre and spread    7  (  0.902512, -0.902512, -0.902512 )     1.00166389
  Sum of centres and spreads (  0.000001, -0.000001,  0.000000 )     3.71258000
 
     29    -0.755E-14     0.0000001004        3.7125799963       0.44  <-- CONV
        O_D=      0.0014078 O_OD=      0.2930064 O_TOT=      3.7125800 <-- SPRD
 Delta: O_D= -0.4567861E-10 O_OD=  0.4567113E-10 O_TOT= -0.7549517E-14 <-- DLTA
 ------------------------------------------------------------------------------
 Cycle:     30
  WF centre and spread    1  ( -0.000000,  0.000000, -0.000000 )     0.40983342
  WF centre and spread    2  (  0.000000, -0.000000,  0.000000 )     0.29652886
  WF centre and spread    3  ( -0.000000, -0.000000,  0.000000 )     0.29652896
  WF centre and spread    4  ( -0.000000,  0.000000,  0.000000 )     0.40983331
  WF centre and spread    5  (  0.000000,  0.000000, -0.000000 )     0.29652770
  WF centre and spread    6  ( -0.902511,  0.902512,  0.902512 )     1.00166387
  WF centre and spread    7  (  0.902512, -0.902512, -0.902512 )     1.00166389
  Sum of centres and spreads (  0.000001, -0.000001,  0.000000 )     3.71258000
 
     30    -0.533E-14     0.0000000910        3.7125799963       0.45  <-- CONV
        O_D=      0.0014078 O_OD=      0.2930064 O_TOT=      3.7125800 <-- SPRD
 Delta: O_D= -0.9705419E-10 O_OD=  0.9704887E-10 O_TOT= -0.5329071E-14 <-- DLTA
 ------------------------------------------------------------------------------
 Cycle:     31
  WF centre and spread    1  ( -0.000000,  0.000000, -0.000000 )     0.40983342
  WF centre and spread    2  (  0.000000, -0.000000,  0.000000 )     0.29652886
  WF centre and spread    3  ( -0.000000, -0.000000,  0.000000 )     0.29652896
  WF centre and spread    4  ( -0.000000,  0.000000,  0.000000 )     0.40983331
  WF centre and spread    5  (  0.000000,  0.000000, -0.000000 )     0.29652770
  WF centre and spread    6  ( -0.902511,  0.902512,  0.902512 )     1.00166387
  WF centre and spread    7  (  0.902512, -0.902512, -0.902512 )     1.00166389
  Sum of centres and spreads (  0.000001, -0.000001,  0.000000 )     3.71258000
 
     31     0.000E+00     0.0000000716        3.7125799963       0.46  <-- CONV
        O_D=      0.0014078 O_OD=      0.2930064 O_TOT=      3.7125800 <-- SPRD
 Delta: O_D= -0.7258272E-11 O_OD=  0.7257972E-11 O_TOT=  0.0000000E+00 <-- DLTA
 ------------------------------------------------------------------------------
 Cycle:     32
  WF centre and spread    1  ( -0.000000,  0.000000, -0.000000 )     0.40983342
  WF centre and spread    2  (  0.000000, -0.000000,  0.000000 )     0.29652886
  WF centre and spread    3  ( -0.000000, -0.000000,  0.000000 )     0.29652896
  WF centre and spread    4  ( -0.000000,  0.000000,  0.000000 )     0.40983331
  WF centre and spread    5  (  0.000000,  0.000000, -0.000000 )     0.29652770
  WF centre and spread    6  ( -0.902511,  0.902512,  0.902512 )     1.00166387
  WF centre and spread    7  (  0.902512, -0.902512, -0.902512 )     1.00166389
  Sum of centres and spreads (  0.000001, -0.000001,  0.000000 )     3.71258000
 
     32    -0.266E-14     0.0000000703        3.7125799963       0.46  <-- CONV
        O_D=      0.0014078 O_OD=      0.2930064 O_TOT=      3.7125800 <-- SPRD
 Delta: O_D= -0.1411321E-10 O_OD=  0.1411060E-10 O_TOT= -0.2664535E-14 <-- DLTA
 ------------------------------------------------------------------------------
 Cycle:     33
  WF centre and spread    1  ( -0.000000,  0.000000, -0.000000 )     0.40983342
  WF centre and spread    2  (  0.000000, -0.000000,  0.000000 )     0.29652886
  WF centre and spread    3  ( -0.000000, -0.000000,  0.000000 )     0.29652896
  WF centre and spread    4  ( -0.000000,  0.000000,  0.000000 )     0.40983331
  WF centre and spread    5  (  0.000000,  0.000000, -0.000000 )     0.29652770
  WF centre and spread    6  ( -0.902511,  0.902512,  0.902512 )     1.00166387
  WF centre and spread    7  (  0.902512, -0.902512, -0.902512 )     1.00166389
  Sum of centres and spreads (  0.000001, -0.000001,  0.000000 )     3.71258000
 
     33     0.133E-14     0.0000000677        3.7125799963       0.47  <-- CONV
        O_D=      0.0014078 O_OD=      0.2930064 O_TOT=      3.7125800 <-- SPRD
 Delta: O_D= -0.9975241E-11 O_OD=  0.9976575E-11 O_TOT=  0.1332268E-14 <-- DLTA
 ------------------------------------------------------------------------------
 Cycle:     34
  WF centre and spread    1  ( -0.000000,  0.000000, -0.000000 )     0.40983341
  WF centre and spread    2  (  0.000000, -0.000000,  0.000000 )     0.29652886
  WF centre and spread    3  ( -0.000000, -0.000000,  0.000000 )     0.29652896
  WF centre and spread    4  ( -0.000000,  0.000000,  0.000000 )     0.40983331
  WF centre and spread    5  (  0.000000,  0.000000, -0.000000 )     0.29652770
  WF centre and spread    6  ( -0.902511,  0.902512,  0.902512 )     1.00166387
  WF centre and spread    7  (  0.902512, -0.902512, -0.902512 )     1.00166390
  Sum of centres and spreads (  0.000001, -0.000001,  0.000000 )     3.71258000
 
     34    -0.178E-14     0.0000000659        3.7125799963       0.47  <-- CONV
        O_D=      0.0014078 O_OD=      0.2930064 O_TOT=      3.7125800 <-- SPRD
 Delta: O_D= -0.2556138E-10 O_OD=  0.2556011E-10 O_TOT= -0.1776357E-14 <-- DLTA
 ------------------------------------------------------------------------------
 Cycle:     35
  WF centre and spread    1  ( -0.000000,  0.000000, -0.000000 )     0.40983341
  WF centre and spread    2  (  0.000000, -0.000000,  0.000000 )     0.29652886
  WF centre and spread    3  ( -0.000000, -0.000000,  0.000000 )     0.29652896
  WF centre and spread    4  ( -0.000000,  0.000000,  0.000000 )     0.40983331
  WF centre and spread    5  (  0.000000,  0.000000, -0.000000 )     0.29652770
  WF centre and spread    6  ( -0.902511,  0.902512,  0.902512 )     1.00166387
  WF centre and spread    7  (  0.902512, -0.902512, -0.902512 )     1.00166390
  Sum of centres and spreads (  0.000001, -0.000001,  0.000000 )     3.71258000
 
     35    -0.178E-14     0.0000000612        3.7125799963       0.48  <-- CONV
        O_D=      0.0014078 O_OD=      0.2930064 O_TOT=      3.7125800 <-- SPRD
 Delta: O_D= -0.1107723E-10 O_OD=  0.1107492E-10 O_TOT= -0.1776357E-14 <-- DLTA
 ------------------------------------------------------------------------------
 Cycle:     36
  WF centre and spread    1  ( -0.000000,  0.000000, -0.000000 )     0.40983341
  WF centre and spread    2  (  0.000000, -0.000000,  0.000000 )     0.29652886
  WF centre and spread    3  ( -0.000000, -0.000000,  0.000000 )     0.29652896
  WF centre and spread    4  ( -0.000000,  0.000000,  0.000000 )     0.40983331
  WF centre and spread    5  (  0.000000,  0.000000, -0.000000 )     0.29652770
  WF centre and spread    6  ( -0.902511,  0.902512,  0.902512 )     1.00166387
  WF centre and spread    7  (  0.902512, -0.902512, -0.902512 )     1.00166390
  Sum of centres and spreads (  0.000001, -0.000001,  0.000000 )     3.71258000
 
     36     0.444E-15     0.0000000591        3.7125799963       0.48  <-- CONV
        O_D=      0.0014078 O_OD=      0.2930064 O_TOT=      3.7125800 <-- SPRD
 Delta: O_D= -0.2155894E-10 O_OD=  0.2155964E-10 O_TOT=  0.4440892E-15 <-- DLTA
 ------------------------------------------------------------------------------
 Cycle:     37
  WF centre and spread    1  ( -0.000000,  0.000000, -0.000000 )     0.40983341
  WF centre and spread    2  (  0.000000, -0.000000,  0.000000 )     0.29652886
  WF centre and spread    3  ( -0.000000, -0.000000,  0.000000 )     0.29652896
  WF centre and spread    4  ( -0.000000,  0.000000,  0.000000 )     0.40983331
  WF centre and spread    5  (  0.000000,  0.000000, -0.000000 )     0.29652770
  WF centre and spread    6  ( -0.902511,  0.902512,  0.902512 )     1.00166387
  WF centre and spread    7  (  0.902512, -0.902512, -0.902512 )     1.00166390
  Sum of centres and spreads (  0.000001, -0.000001,  0.000000 )     3.71258000
 
     37     0.444E-15     0.0000000552        3.7125799963       0.49  <-- CONV
        O_D=      0.0014078 O_OD=      0.2930064 O_TOT=      3.7125800 <-- SPRD
 Delta: O_D= -0.5599408E-11 O_OD=  0.5599743E-11 O_TOT=  0.4440892E-15 <-- DLTA
 ------------------------------------------------------------------------------
 Cycle:     38
  WF centre and spread    1  ( -0.000000,  0.000000, -0.000000 )     0.40983341
  WF centre and spread    2  (  0.000000, -0.000000,  0.000000 )     0.29652886
  WF centre and spread    3  ( -0.000000, -0.000000,  0.000000 )     0.29652896
  WF centre and spread    4  ( -0.000000,  0.000000,  0.000000 )     0.40983331
  WF centre and spread    5  (  0.000000,  0.000000, -0.000000 )     0.29652770
  WF centre and spread    6  ( -0.902511,  0.902512,  0.902512 )     1.00166387
  WF centre and spread    7  (  0.902512, -0.902512, -0.902512 )     1.00166390
  Sum of centres and spreads (  0.000001, -0.000001,  0.000000 )     3.71258000
 
     38    -0.133E-14     0.0000000542        3.7125799963       0.49  <-- CONV
        O_D=      0.0014078 O_OD=      0.2930064 O_TOT=      3.7125800 <-- SPRD
 Delta: O_D= -0.1089044E-10 O_OD=  0.1088962E-10 O_TOT= -0.1332268E-14 <-- DLTA
 ------------------------------------------------------------------------------
 Cycle:     39
  WF centre and spread    1  ( -0.000000,  0.000000, -0.000000 )     0.40983341
  WF centre and spread    2  (  0.000000, -0.000000,  0.000000 )     0.29652886
  WF centre and spread    3  ( -0.000000, -0.000000,  0.000000 )     0.29652896
  WF centre and spread    4  ( -0.000000,  0.000000,  0.000000 )     0.40983331
  WF centre and spread    5  (  0.000000,  0.000000, -0.000000 )     0.29652770
  WF centre and spread    6  ( -0.902511,  0.902512,  0.902512 )     1.00166387
  WF centre and spread    7  (  0.902512, -0.902512, -0.902512 )     1.00166390
  Sum of centres and spreads (  0.000001, -0.000001,  0.000000 )     3.71258000
 
     39    -0.266E-14     0.0000000522        3.7125799963       0.49  <-- CONV
        O_D=      0.0014078 O_OD=      0.2930064 O_TOT=      3.7125800 <-- SPRD
 Delta: O_D= -0.1540441E-10 O_OD=  0.1540101E-10 O_TOT= -0.2664535E-14 <-- DLTA
 ------------------------------------------------------------------------------
 Cycle:     40
  WF centre and spread    1  ( -0.000000,  0.000000, -0.000000 )     0.40983341
  WF centre and spread    2  (  0.000000, -0.000000,  0.000000 )     0.29652886
  WF centre and spread    3  ( -0.000000, -0.000000,  0.000000 )     0.29652896
  WF centre and spread    4  ( -0.000000,  0.000000,  0.000000 )     0.40983331
  WF centre and spread    5  (  0.000000,  0.000000, -0.000000 )     0.29652770
  WF centre and spread    6  ( -0.902511,  0.902512,  0.902512 )     1.00166387
  WF centre and spread    7  (  0.902512, -0.902512, -0.902512 )     1.00166390
  Sum of centres and spreads (  0.000001, -0.000001,  0.000000 )     3.71258000
 
     40    -0.311E-14     0.0000000494        3.7125799963       0.50  <-- CONV
        O_D=      0.0014078 O_OD=      0.2930064 O_TOT=      3.7125800 <-- SPRD
 Delta: O_D= -0.1881017E-10 O_OD=  0.1880757E-10 O_TOT= -0.3108624E-14 <-- DLTA
 ------------------------------------------------------------------------------
 Cycle:     41
  WF centre and spread    1  ( -0.000000,  0.000000, -0.000000 )     0.40983341
  WF centre and spread    2  (  0.000000, -0.000000,  0.000000 )     0.29652886
  WF centre and spread    3  ( -0.000000, -0.000000,  0.000000 )     0.29652896
  WF centre and spread    4  ( -0.000000,  0.000000,  0.000000 )     0.40983331
  WF centre and spread    5  (  0.000000,  0.000000, -0.000000 )     0.29652770
  WF centre and spread    6  ( -0.902511,  0.902512,  0.902512 )     1.00166387
  WF centre and spread    7  (  0.902512, -0.902512, -0.902512 )     1.00166390
  Sum of centres and spreads (  0.000001, -0.000001,  0.000000 )     3.71258000
 
     41     0.400E-14     0.0000000461        3.7125799963       0.50  <-- CONV
        O_D=      0.0014078 O_OD=      0.2930064 O_TOT=      3.7125800 <-- SPRD
 Delta: O_D= -0.1635242E-11 O_OD=  0.1639133E-11 O_TOT=  0.3996803E-14 <-- DLTA
 ------------------------------------------------------------------------------
 Cycle:     42
  WF centre and spread    1  ( -0.000000,  0.000000, -0.000000 )     0.40983341
  WF centre and spread    2  (  0.000000, -0.000000,  0.000000 )     0.29652886
  WF centre and spread    3  ( -0.000000, -0.000000,  0.000000 )     0.29652896
  WF centre and spread    4  ( -0.000000,  0.000000,  0.000000 )     0.40983331
  WF centre and spread    5  (  0.000000,  0.000000, -0.000000 )     0.29652770
  WF centre and spread    6  ( -0.902511,  0.902512,  0.902512 )     1.00166387
  WF centre and spread    7  (  0.902512, -0.902512, -0.902512 )     1.00166390
  Sum of centres and spreads (  0.000001, -0.000001,  0.000000 )     3.71258000
 
     42    -0.444E-15     0.0000000458        3.7125799963       0.51  <-- CONV
        O_D=      0.0014078 O_OD=      0.2930064 O_TOT=      3.7125800 <-- SPRD
 Delta: O_D= -0.2532347E-10 O_OD=  0.2532302E-10 O_TOT= -0.4440892E-15 <-- DLTA
 ------------------------------------------------------------------------------
 Cycle:     43
  WF centre and spread    1  ( -0.000000,  0.000000, -0.000000 )     0.40983341
  WF centre and spread    2  (  0.000000, -0.000000,  0.000000 )     0.29652886
  WF centre and spread    3  ( -0.000000, -0.000000,  0.000000 )     0.29652896
  WF centre and spread    4  ( -0.000000,  0.000000,  0.000000 )     0.40983331
  WF centre and spread    5  (  0.000000,  0.000000, -0.000000 )     0.29652770
  WF centre and spread    6  ( -0.902511,  0.902512,  0.902512 )     1.00166387
  WF centre and spread    7  (  0.902512, -0.902512, -0.902512 )     1.00166390
  Sum of centres and spreads (  0.000001, -0.000001,  0.000000 )     3.71258000
 
     43     0.444E-15     0.0000000412        3.7125799963       0.51  <-- CONV
        O_D=      0.0014078 O_OD=      0.2930064 O_TOT=      3.7125800 <-- SPRD
 Delta: O_D= -0.4144412E-11 O_OD=  0.4144740E-11 O_TOT=  0.4440892E-15 <-- DLTA
 ------------------------------------------------------------------------------
 Cycle:     44
  WF centre and spread    1  ( -0.000000,  0.000000, -0.000000 )     0.40983341
  WF centre and spread    2  (  0.000000, -0.000000,  0.000000 )     0.29652886
  WF centre and spread    3  ( -0.000000, -0.000000,  0.000000 )     0.29652896
  WF centre and spread    4  ( -0.000000,  0.000000,  0.000000 )     0.40983331
  WF centre and spread    5  (  0.000000,  0.000000, -0.000000 )     0.29652770
  WF centre and spread    6  ( -0.902511,  0.902512,  0.902512 )     1.00166387
  WF centre and spread    7  (  0.902512, -0.902512, -0.902512 )     1.00166390
  Sum of centres and spreads (  0.000001, -0.000001,  0.000000 )     3.71258000
 
     44    -0.178E-14     0.0000000405        3.7125799963       0.51  <-- CONV
        O_D=      0.0014078 O_OD=      0.2930064 O_TOT=      3.7125800 <-- SPRD
 Delta: O_D= -0.8062134E-11 O_OD=  0.8060164E-11 O_TOT= -0.1776357E-14 <-- DLTA
 ------------------------------------------------------------------------------
 Cycle:     45
  WF centre and spread    1  ( -0.000000,  0.000000, -0.000000 )     0.40983341
  WF centre and spread    2  (  0.000000, -0.000000,  0.000000 )     0.29652886
  WF centre and spread    3  ( -0.000000, -0.000000,  0.000000 )     0.29652896
  WF centre and spread    4  ( -0.000000,  0.000000,  0.000000 )     0.40983331
  WF centre and spread    5  (  0.000000,  0.000000, -0.000000 )     0.29652770
  WF centre and spread    6  ( -0.902511,  0.902512,  0.902512 )     1.00166387
  WF centre and spread    7  (  0.902512, -0.902512, -0.902512 )     1.00166390
  Sum of centres and spreads (  0.000001, -0.000001,  0.000000 )     3.71258000
 
     45     0.000E+00     0.0000000390        3.7125799963       0.52  <-- CONV
        O_D=      0.0014078 O_OD=      0.2930064 O_TOT=      3.7125800 <-- SPRD
 Delta: O_D= -0.1830464E-11 O_OD=  0.1830869E-11 O_TOT=  0.0000000E+00 <-- DLTA
 ------------------------------------------------------------------------------
 Cycle:     46
  WF centre and spread    1  ( -0.000000,  0.000000, -0.000000 )     0.40983341
  WF centre and spread    2  (  0.000000, -0.000000,  0.000000 )     0.29652886
  WF centre and spread    3  ( -0.000000, -0.000000,  0.000000 )     0.29652896
  WF centre and spread    4  ( -0.000000,  0.000000,  0.000000 )     0.40983331
  WF centre and spread    5  (  0.000000,  0.000000, -0.000000 )     0.29652770
  WF centre and spread    6  ( -0.902511,  0.902512,  0.902512 )     1.00166387
  WF centre and spread    7  (  0.902512, -0.902512, -0.902512 )     1.00166390
  Sum of centres and spreads (  0.000001, -0.000001,  0.000000 )     3.71258000
 
     46     0.222E-14     0.0000000387        3.7125799963       0.53  <-- CONV
        O_D=      0.0014078 O_OD=      0.2930064 O_TOT=      3.7125800 <-- SPRD
 Delta: O_D= -0.2208107E-11 O_OD=  0.2210121E-11 O_TOT=  0.2220446E-14 <-- DLTA
 ------------------------------------------------------------------------------
 Cycle:     47
  WF centre and spread    1  ( -0.000000,  0.000000, -0.000000 )     0.40983341
  WF centre and spread    2  (  0.000000, -0.000000,  0.000000 )     0.29652886
  WF centre and spread    3  ( -0.000000, -0.000000,  0.000000 )     0.29652896
  WF centre and spread    4  ( -0.000000,  0.000000,  0.000000 )     0.40983331
  WF centre and spread    5  (  0.000000,  0.000000, -0.000000 )     0.29652770
  WF centre and spread    6  ( -0.902511,  0.902512,  0.902512 )     1.00166387
  WF centre and spread    7  (  0.902512, -0.902512, -0.902512 )     1.00166390
  Sum of centres and spreads (  0.000001, -0.000001,  0.000000 )     3.71258000
 
     47     0.000E+00     0.0000000383        3.7125799963       0.53  <-- CONV
        O_D=      0.0014078 O_OD=      0.2930064 O_TOT=      3.7125800 <-- SPRD
 Delta: O_D= -0.1862597E-10 O_OD=  0.1862571E-10 O_TOT=  0.0000000E+00 <-- DLTA
 ------------------------------------------------------------------------------
 Cycle:     48
  WF centre and spread    1  ( -0.000000,  0.000000, -0.000000 )     0.40983341
  WF centre and spread    2  (  0.000000, -0.000000,  0.000000 )     0.29652886
  WF centre and spread    3  ( -0.000000, -0.000000,  0.000000 )     0.29652896
  WF centre and spread    4  ( -0.000000,  0.000000,  0.000000 )     0.40983331
  WF centre and spread    5  (  0.000000,  0.000000, -0.000000 )     0.29652770
  WF centre and spread    6  ( -0.902511,  0.902512,  0.902512 )     1.00166387
  WF centre and spread    7  (  0.902512, -0.902512, -0.902512 )     1.00166390
  Sum of centres and spreads (  0.000001, -0.000001,  0.000000 )     3.71258000
 
     48    -0.133E-14     0.0000000350        3.7125799963       0.53  <-- CONV
        O_D=      0.0014078 O_OD=      0.2930064 O_TOT=      3.7125800 <-- SPRD
 Delta: O_D= -0.1900702E-10 O_OD=  0.1900591E-10 O_TOT= -0.1332268E-14 <-- DLTA
 ------------------------------------------------------------------------------
 Cycle:     49
  WF centre and spread    1  ( -0.000000,  0.000000, -0.000000 )     0.40983341
  WF centre and spread    2  (  0.000000, -0.000000,  0.000000 )     0.29652886
  WF centre and spread    3  ( -0.000000, -0.000000,  0.000000 )     0.29652896
  WF centre and spread    4  ( -0.000000,  0.000000,  0.000000 )     0.40983331
  WF centre and spread    5  (  0.000000,  0.000000, -0.000000 )     0.29652770
  WF centre and spread    6  ( -0.902511,  0.902512,  0.902512 )     1.00166387
  WF centre and spread    7  (  0.902512, -0.902512, -0.902512 )     1.00166390
  Sum of centres and spreads (  0.000001, -0.000001,  0.000000 )     3.71258000
 
     49    -0.266E-14     0.0000000316        3.7125799963       0.54  <-- CONV
        O_D=      0.0014078 O_OD=      0.2930064 O_TOT=      3.7125800 <-- SPRD
 Delta: O_D= -0.3121058E-11 O_OD=  0.3118117E-11 O_TOT= -0.2664535E-14 <-- DLTA
 ------------------------------------------------------------------------------
 Cycle:     50
  WF centre and spread    1  ( -0.000000,  0.000000, -0.000000 )     0.40983341
  WF centre and spread    2  (  0.000000, -0.000000,  0.000000 )     0.29652886
  WF centre and spread    3  ( -0.000000, -0.000000,  0.000000 )     0.29652896
  WF centre and spread    4  ( -0.000000,  0.000000,  0.000000 )     0.40983331
  WF centre and spread    5  (  0.000000,  0.000000, -0.000000 )     0.29652770
  WF centre and spread    6  ( -0.902511,  0.902512,  0.902512 )     1.00166387
  WF centre and spread    7  (  0.902512, -0.902512, -0.902512 )     1.00166390
  Sum of centres and spreads (  0.000001, -0.000001,  0.000000 )     3.71258000
 
     50     0.444E-15     0.0000000310        3.7125799963       0.54  <-- CONV
        O_D=      0.0014078 O_OD=      0.2930064 O_TOT=      3.7125800 <-- SPRD
 Delta: O_D= -0.6072208E-11 O_OD=  0.6073309E-11 O_TOT=  0.4440892E-15 <-- DLTA
 ------------------------------------------------------------------------------
 Cycle:     51
  WF centre and spread    1  ( -0.000000,  0.000000, -0.000000 )     0.40983341
  WF centre and spread    2  (  0.000000, -0.000000,  0.000000 )     0.29652886
  WF centre and spread    3  ( -0.000000, -0.000000,  0.000000 )     0.29652896
  WF centre and spread    4  ( -0.000000,  0.000000,  0.000000 )     0.40983331
  WF centre and spread    5  (  0.000000,  0.000000, -0.000000 )     0.29652770
  WF centre and spread    6  ( -0.902511,  0.902512,  0.902512 )     1.00166387
  WF centre and spread    7  (  0.902512, -0.902512, -0.902512 )     1.00166390
  Sum of centres and spreads (  0.000001, -0.000001,  0.000000 )     3.71258000
 
     51    -0.888E-15     0.0000000299        3.7125799963       0.54  <-- CONV
        O_D=      0.0014078 O_OD=      0.2930064 O_TOT=      3.7125800 <-- SPRD
 Delta: O_D= -0.8596833E-11 O_OD=  0.8595569E-11 O_TOT= -0.8881784E-15 <-- DLTA
 ------------------------------------------------------------------------------
 Cycle:     52
  WF centre and spread    1  ( -0.000000,  0.000000, -0.000000 )     0.40983341
  WF centre and spread    2  (  0.000000, -0.000000,  0.000000 )     0.29652886
  WF centre and spread    3  ( -0.000000, -0.000000,  0.000000 )     0.29652896
  WF centre and spread    4  ( -0.000000,  0.000000,  0.000000 )     0.40983331
  WF centre and spread    5  (  0.000000,  0.000000, -0.000000 )     0.29652770
  WF centre and spread    6  ( -0.902511,  0.902512,  0.902512 )     1.00166387
  WF centre and spread    7  (  0.902512, -0.902512, -0.902512 )     1.00166390
  Sum of centres and spreads (  0.000001, -0.000001,  0.000000 )     3.71258000
 
     52    -0.133E-14     0.0000000284        3.7125799963       0.55  <-- CONV
        O_D=      0.0014078 O_OD=      0.2930064 O_TOT=      3.7125800 <-- SPRD
 Delta: O_D= -0.1051154E-10 O_OD=  0.1051037E-10 O_TOT= -0.1332268E-14 <-- DLTA
 ------------------------------------------------------------------------------
 Cycle:     53
  WF centre and spread    1  ( -0.000000,  0.000000, -0.000000 )     0.40983341
  WF centre and spread    2  (  0.000000, -0.000000,  0.000000 )     0.29652886
  WF centre and spread    3  ( -0.000000, -0.000000,  0.000000 )     0.29652896
  WF centre and spread    4  ( -0.000000,  0.000000,  0.000000 )     0.40983331
  WF centre and spread    5  (  0.000000,  0.000000, -0.000000 )     0.29652770
  WF centre and spread    6  ( -0.902511,  0.902512,  0.902512 )     1.00166387
  WF centre and spread    7  (  0.902512, -0.902512, -0.902512 )     1.00166390
  Sum of centres and spreads (  0.000001, -0.000001,  0.000000 )     3.71258000
 
     53     0.888E-15     0.0000000265        3.7125799963       0.55  <-- CONV
        O_D=      0.0014078 O_OD=      0.2930064 O_TOT=      3.7125800 <-- SPRD
 Delta: O_D= -0.8472331E-12 O_OD=  0.8482104E-12 O_TOT=  0.8881784E-15 <-- DLTA
 ------------------------------------------------------------------------------
 Cycle:     54
  WF centre and spread    1  ( -0.000000,  0.000000, -0.000000 )     0.40983341
  WF centre and spread    2  (  0.000000, -0.000000,  0.000000 )     0.29652886
  WF centre and spread    3  ( -0.000000, -0.000000,  0.000000 )     0.29652896
  WF centre and spread    4  ( -0.000000,  0.000000,  0.000000 )     0.40983331
  WF centre and spread    5  (  0.000000,  0.000000, -0.000000 )     0.29652770
  WF centre and spread    6  ( -0.902511,  0.902512,  0.902512 )     1.00166387
  WF centre and spread    7  (  0.902512, -0.902512, -0.902512 )     1.00166390
  Sum of centres and spreads (  0.000001, -0.000001,  0.000000 )     3.71258000
 
     54    -0.444E-15     0.0000000263        3.7125799963       0.56  <-- CONV
        O_D=      0.0014078 O_OD=      0.2930064 O_TOT=      3.7125800 <-- SPRD
 Delta: O_D= -0.6519386E-12 O_OD=  0.6513123E-12 O_TOT= -0.4440892E-15 <-- DLTA
 ------------------------------------------------------------------------------
 Cycle:     55
  WF centre and spread    1  ( -0.000000,  0.000000, -0.000000 )     0.40983341
  WF centre and spread    2  (  0.000000, -0.000000,  0.000000 )     0.29652886
  WF centre and spread    3  ( -0.000000, -0.000000,  0.000000 )     0.29652896
  WF centre and spread    4  ( -0.000000,  0.000000,  0.000000 )     0.40983331
  WF centre and spread    5  (  0.000000,  0.000000, -0.000000 )     0.29652770
  WF centre and spread    6  ( -0.902511,  0.902512,  0.902512 )     1.00166387
  WF centre and spread    7  (  0.902512, -0.902512, -0.902512 )     1.00166390
  Sum of centres and spreads (  0.000001, -0.000001,  0.000000 )     3.71258000
 
     55     0.888E-15     0.0000000262        3.7125799963       0.57  <-- CONV
        O_D=      0.0014078 O_OD=      0.2930064 O_TOT=      3.7125800 <-- SPRD
 Delta: O_D= -0.2611171E-13 O_OD=  0.2686740E-13 O_TOT=  0.8881784E-15 <-- DLTA
 ------------------------------------------------------------------------------
 Cycle:     56
  WF centre and spread    1  ( -0.000000,  0.000000, -0.000000 )     0.40983341
  WF centre and spread    2  (  0.000000, -0.000000,  0.000000 )     0.29652886
  WF centre and spread    3  ( -0.000000, -0.000000,  0.000000 )     0.29652896
  WF centre and spread    4  ( -0.000000,  0.000000,  0.000000 )     0.40983331
  WF centre and spread    5  (  0.000000,  0.000000, -0.000000 )     0.29652770
  WF centre and spread    6  ( -0.902511,  0.902512,  0.902512 )     1.00166387
  WF centre and spread    7  (  0.902512, -0.902512, -0.902512 )     1.00166390
  Sum of centres and spreads (  0.000001, -0.000001,  0.000000 )     3.71258000
 
     56    -0.888E-15     0.0000000262        3.7125799963       0.57  <-- CONV
        O_D=      0.0014078 O_OD=      0.2930064 O_TOT=      3.7125800 <-- SPRD
 Delta: O_D= -0.5091888E-11 O_OD=  0.5091094E-11 O_TOT= -0.8881784E-15 <-- DLTA
 ------------------------------------------------------------------------------
 Cycle:     57
  WF centre and spread    1  ( -0.000000,  0.000000, -0.000000 )     0.40983341
  WF centre and spread    2  (  0.000000, -0.000000,  0.000000 )     0.29652886
  WF centre and spread    3  ( -0.000000, -0.000000,  0.000000 )     0.29652896
  WF centre and spread    4  ( -0.000000,  0.000000,  0.000000 )     0.40983331
  WF centre and spread    5  (  0.000000,  0.000000, -0.000000 )     0.29652770
  WF centre and spread    6  ( -0.902511,  0.902512,  0.902512 )     1.00166387
  WF centre and spread    7  (  0.902512, -0.902512, -0.902512 )     1.00166390
  Sum of centres and spreads (  0.000001, -0.000001,  0.000000 )     3.71258000
 
     57    -0.222E-14     0.0000000253        3.7125799963       0.58  <-- CONV
        O_D=      0.0014078 O_OD=      0.2930064 O_TOT=      3.7125800 <-- SPRD
 Delta: O_D= -0.5985904E-12 O_OD=  0.5962453E-12 O_TOT= -0.2220446E-14 <-- DLTA
 ------------------------------------------------------------------------------
 Cycle:     58
  WF centre and spread    1  ( -0.000000,  0.000000, -0.000000 )     0.40983341
  WF centre and spread    2  (  0.000000, -0.000000,  0.000000 )     0.29652886
  WF centre and spread    3  ( -0.000000, -0.000000,  0.000000 )     0.29652896
  WF centre and spread    4  ( -0.000000,  0.000000,  0.000000 )     0.40983331
  WF centre and spread    5  (  0.000000,  0.000000, -0.000000 )     0.29652770
  WF centre and spread    6  ( -0.902511,  0.902512,  0.902512 )     1.00166387
  WF centre and spread    7  (  0.902512, -0.902512, -0.902512 )     1.00166390
  Sum of centres and spreads (  0.000001, -0.000001,  0.000000 )     3.71258000
 
     58     0.311E-14     0.0000000252        3.7125799963       0.58  <-- CONV
        O_D=      0.0014078 O_OD=      0.2930064 O_TOT=      3.7125800 <-- SPRD
 Delta: O_D= -0.3879282E-12 O_OD=  0.3912981E-12 O_TOT=  0.3108624E-14 <-- DLTA
 ------------------------------------------------------------------------------
 Cycle:     59
  WF centre and spread    1  ( -0.000000,  0.000000, -0.000000 )     0.40983341
  WF centre and spread    2  (  0.000000, -0.000000,  0.000000 )     0.29652886
  WF centre and spread    3  ( -0.000000, -0.000000,  0.000000 )     0.29652896
[...]
  WF centre and spread    7  (  0.902512, -0.902512, -0.902512 )     1.00166390
  Sum of centres and spreads (  0.000001, -0.000001,  0.000000 )     3.71258000
 
   1982     0.000E+00     0.0000000020        3.7125799963      12.49  <-- CONV
        O_D=      0.0014078 O_OD=      0.2930064 O_TOT=      3.7125800 <-- SPRD
 Delta: O_D=  0.2602085E-17 O_OD= -0.1665335E-15 O_TOT=  0.0000000E+00 <-- DLTA
 ------------------------------------------------------------------------------
 Cycle:   1983
  WF centre and spread    1  ( -0.000000,  0.000000, -0.000000 )     0.40983341
  WF centre and spread    2  (  0.000000, -0.000000,  0.000000 )     0.29652886
  WF centre and spread    3  ( -0.000000, -0.000000,  0.000000 )     0.29652896
  WF centre and spread    4  ( -0.000000,  0.000000,  0.000000 )     0.40983330
  WF centre and spread    5  (  0.000000,  0.000000, -0.000000 )     0.29652769
  WF centre and spread    6  ( -0.902511,  0.902512,  0.902512 )     1.00166387
  WF centre and spread    7  (  0.902512, -0.902512, -0.902512 )     1.00166390
  Sum of centres and spreads (  0.000001, -0.000001,  0.000000 )     3.71258000
 
   1983    -0.444E-15     0.0000000020        3.7125799963      12.50  <-- CONV
        O_D=      0.0014078 O_OD=      0.2930064 O_TOT=      3.7125800 <-- SPRD
 Delta: O_D=  0.3035766E-17 O_OD= -0.2775558E-15 O_TOT= -0.4440892E-15 <-- DLTA
 ------------------------------------------------------------------------------
 Cycle:   1984
  WF centre and spread    1  ( -0.000000,  0.000000, -0.000000 )     0.40983341
  WF centre and spread    2  (  0.000000, -0.000000,  0.000000 )     0.29652886
  WF centre and spread    3  ( -0.000000, -0.000000,  0.000000 )     0.29652896
  WF centre and spread    4  ( -0.000000,  0.000000,  0.000000 )     0.40983330
  WF centre and spread    5  (  0.000000,  0.000000, -0.000000 )     0.29652769
  WF centre and spread    6  ( -0.902511,  0.902512,  0.902512 )     1.00166387
  WF centre and spread    7  (  0.902512, -0.902512, -0.902512 )     1.00166390
  Sum of centres and spreads (  0.000001, -0.000001,  0.000000 )     3.71258000
 
   1984    -0.444E-15     0.0000000020        3.7125799963      12.50  <-- CONV
        O_D=      0.0014078 O_OD=      0.2930064 O_TOT=      3.7125800 <-- SPRD
 Delta: O_D=  0.4336809E-18 O_OD= -0.2775558E-15 O_TOT= -0.4440892E-15 <-- DLTA
 ------------------------------------------------------------------------------
 Cycle:   1985
  WF centre and spread    1  ( -0.000000,  0.000000, -0.000000 )     0.40983341
  WF centre and spread    2  (  0.000000, -0.000000,  0.000000 )     0.29652886
  WF centre and spread    3  ( -0.000000, -0.000000,  0.000000 )     0.29652896
  WF centre and spread    4  ( -0.000000,  0.000000,  0.000000 )     0.40983330
  WF centre and spread    5  (  0.000000,  0.000000, -0.000000 )     0.29652769
  WF centre and spread    6  ( -0.902511,  0.902512,  0.902512 )     1.00166387
  WF centre and spread    7  (  0.902512, -0.902512, -0.902512 )     1.00166390
  Sum of centres and spreads (  0.000001, -0.000001,  0.000000 )     3.71258000
 
   1985     0.444E-15     0.0000000020        3.7125799963      12.51  <-- CONV
        O_D=      0.0014078 O_OD=      0.2930064 O_TOT=      3.7125800 <-- SPRD
 Delta: O_D=  0.2168404E-17 O_OD=  0.5551115E-16 O_TOT=  0.4440892E-15 <-- DLTA
 ------------------------------------------------------------------------------
 Cycle:   1986
  WF centre and spread    1  ( -0.000000,  0.000000, -0.000000 )     0.40983341
  WF centre and spread    2  (  0.000000, -0.000000,  0.000000 )     0.29652886
  WF centre and spread    3  ( -0.000000, -0.000000,  0.000000 )     0.29652896
  WF centre and spread    4  ( -0.000000,  0.000000,  0.000000 )     0.40983330
  WF centre and spread    5  (  0.000000,  0.000000, -0.000000 )     0.29652769
  WF centre and spread    6  ( -0.902511,  0.902512,  0.902512 )     1.00166387
  WF centre and spread    7  (  0.902512, -0.902512, -0.902512 )     1.00166390
  Sum of centres and spreads (  0.000001, -0.000001,  0.000000 )     3.71258000
 
   1986    -0.444E-15     0.0000000020        3.7125799963      12.52  <-- CONV
        O_D=      0.0014078 O_OD=      0.2930064 O_TOT=      3.7125800 <-- SPRD
 Delta: O_D=  0.3469447E-17 O_OD= -0.3885781E-15 O_TOT= -0.4440892E-15 <-- DLTA
 ------------------------------------------------------------------------------
 Cycle:   1987
  WF centre and spread    1  ( -0.000000,  0.000000, -0.000000 )     0.40983341
  WF centre and spread    2  (  0.000000, -0.000000,  0.000000 )     0.29652886
  WF centre and spread    3  ( -0.000000, -0.000000,  0.000000 )     0.29652896
  WF centre and spread    4  ( -0.000000,  0.000000,  0.000000 )     0.40983330
  WF centre and spread    5  (  0.000000,  0.000000, -0.000000 )     0.29652769
  WF centre and spread    6  ( -0.902511,  0.902512,  0.902512 )     1.00166387
  WF centre and spread    7  (  0.902512, -0.902512, -0.902512 )     1.00166390
  Sum of centres and spreads (  0.000001, -0.000001,  0.000000 )     3.71258000
 
   1987     0.000E+00     0.0000000020        3.7125799963      12.52  <-- CONV
        O_D=      0.0014078 O_OD=      0.2930064 O_TOT=      3.7125800 <-- SPRD
 Delta: O_D=  0.2385245E-17 O_OD=  0.0000000E+00 O_TOT=  0.0000000E+00 <-- DLTA
 ------------------------------------------------------------------------------
 Cycle:   1988
  WF centre and spread    1  ( -0.000000,  0.000000, -0.000000 )     0.40983341
  WF centre and spread    2  (  0.000000, -0.000000,  0.000000 )     0.29652886
  WF centre and spread    3  ( -0.000000, -0.000000,  0.000000 )     0.29652896
  WF centre and spread    4  ( -0.000000,  0.000000,  0.000000 )     0.40983330
  WF centre and spread    5  (  0.000000,  0.000000, -0.000000 )     0.29652769
  WF centre and spread    6  ( -0.902511,  0.902512,  0.902512 )     1.00166387
  WF centre and spread    7  (  0.902512, -0.902512, -0.902512 )     1.00166390
  Sum of centres and spreads (  0.000001, -0.000001,  0.000000 )     3.71258000
 
   1988     0.000E+00     0.0000000020        3.7125799963      12.53  <-- CONV
        O_D=      0.0014078 O_OD=      0.2930064 O_TOT=      3.7125800 <-- SPRD
 Delta: O_D=  0.6505213E-18 O_OD=  0.1665335E-15 O_TOT=  0.0000000E+00 <-- DLTA
 ------------------------------------------------------------------------------
 Cycle:   1989
  WF centre and spread    1  ( -0.000000,  0.000000, -0.000000 )     0.40983341
  WF centre and spread    2  (  0.000000, -0.000000,  0.000000 )     0.29652886
  WF centre and spread    3  ( -0.000000, -0.000000,  0.000000 )     0.29652896
  WF centre and spread    4  ( -0.000000,  0.000000,  0.000000 )     0.40983330
  WF centre and spread    5  (  0.000000,  0.000000, -0.000000 )     0.29652769
  WF centre and spread    6  ( -0.902511,  0.902512,  0.902512 )     1.00166387
  WF centre and spread    7  (  0.902512, -0.902512, -0.902512 )     1.00166390
  Sum of centres and spreads (  0.000001, -0.000001,  0.000000 )     3.71258000
 
   1989     0.444E-15     0.0000000020        3.7125799963      12.54  <-- CONV
        O_D=      0.0014078 O_OD=      0.2930064 O_TOT=      3.7125800 <-- SPRD
 Delta: O_D=  0.8673617E-18 O_OD=  0.4440892E-15 O_TOT=  0.4440892E-15 <-- DLTA
 ------------------------------------------------------------------------------
 Cycle:   1990
  WF centre and spread    1  ( -0.000000,  0.000000, -0.000000 )     0.40983341
  WF centre and spread    2  (  0.000000, -0.000000,  0.000000 )     0.29652886
  WF centre and spread    3  ( -0.000000, -0.000000,  0.000000 )     0.29652896
  WF centre and spread    4  ( -0.000000,  0.000000,  0.000000 )     0.40983330
  WF centre and spread    5  (  0.000000,  0.000000, -0.000000 )     0.29652769
  WF centre and spread    6  ( -0.902511,  0.902512,  0.902512 )     1.00166387
  WF centre and spread    7  (  0.902512, -0.902512, -0.902512 )     1.00166390
  Sum of centres and spreads (  0.000001, -0.000001,  0.000000 )     3.71258000
 
   1990     0.000E+00     0.0000000020        3.7125799963      12.54  <-- CONV
        O_D=      0.0014078 O_OD=      0.2930064 O_TOT=      3.7125800 <-- SPRD
 Delta: O_D=  0.3252607E-17 O_OD= -0.5551115E-16 O_TOT=  0.0000000E+00 <-- DLTA
 ------------------------------------------------------------------------------
 Cycle:   1991
  WF centre and spread    1  ( -0.000000,  0.000000, -0.000000 )     0.40983341
  WF centre and spread    2  (  0.000000, -0.000000,  0.000000 )     0.29652886
  WF centre and spread    3  ( -0.000000, -0.000000,  0.000000 )     0.29652896
  WF centre and spread    4  ( -0.000000,  0.000000,  0.000000 )     0.40983330
  WF centre and spread    5  (  0.000000,  0.000000, -0.000000 )     0.29652769
  WF centre and spread    6  ( -0.902511,  0.902512,  0.902512 )     1.00166387
  WF centre and spread    7  (  0.902512, -0.902512, -0.902512 )     1.00166390
  Sum of centres and spreads (  0.000001, -0.000001,  0.000000 )     3.71258000
 
   1991     0.000E+00     0.0000000020        3.7125799963      12.55  <-- CONV
        O_D=      0.0014078 O_OD=      0.2930064 O_TOT=      3.7125800 <-- SPRD
 Delta: O_D=  0.3035766E-17 O_OD=  0.0000000E+00 O_TOT=  0.0000000E+00 <-- DLTA
 ------------------------------------------------------------------------------
 Cycle:   1992
  WF centre and spread    1  ( -0.000000,  0.000000, -0.000000 )     0.40983341
  WF centre and spread    2  (  0.000000, -0.000000,  0.000000 )     0.29652886
  WF centre and spread    3  ( -0.000000, -0.000000,  0.000000 )     0.29652896
  WF centre and spread    4  ( -0.000000,  0.000000,  0.000000 )     0.40983330
  WF centre and spread    5  (  0.000000,  0.000000, -0.000000 )     0.29652769
  WF centre and spread    6  ( -0.902511,  0.902512,  0.902512 )     1.00166387
  WF centre and spread    7  (  0.902512, -0.902512, -0.902512 )     1.00166390
  Sum of centres and spreads (  0.000001, -0.000001,  0.000000 )     3.71258000
 
   1992     0.000E+00     0.0000000020        3.7125799963      12.55  <-- CONV
        O_D=      0.0014078 O_OD=      0.2930064 O_TOT=      3.7125800 <-- SPRD
 Delta: O_D=  0.2602085E-17 O_OD=  0.5551115E-16 O_TOT=  0.0000000E+00 <-- DLTA
 ------------------------------------------------------------------------------
 Cycle:   1993
  WF centre and spread    1  ( -0.000000,  0.000000, -0.000000 )     0.40983341
  WF centre and spread    2  (  0.000000, -0.000000,  0.000000 )     0.29652886
  WF centre and spread    3  ( -0.000000, -0.000000,  0.000000 )     0.29652896
  WF centre and spread    4  ( -0.000000,  0.000000,  0.000000 )     0.40983330
  WF centre and spread    5  (  0.000000,  0.000000, -0.000000 )     0.29652769
  WF centre and spread    6  ( -0.902511,  0.902512,  0.902512 )     1.00166387
  WF centre and spread    7  (  0.902512, -0.902512, -0.902512 )     1.00166390
  Sum of centres and spreads (  0.000001, -0.000001,  0.000000 )     3.71258000
 
   1993    -0.444E-15     0.0000000020        3.7125799963      12.56  <-- CONV
        O_D=      0.0014078 O_OD=      0.2930064 O_TOT=      3.7125800 <-- SPRD
 Delta: O_D=  0.2385245E-17 O_OD= -0.4996004E-15 O_TOT= -0.4440892E-15 <-- DLTA
 ------------------------------------------------------------------------------
 Cycle:   1994
  WF centre and spread    1  ( -0.000000,  0.000000, -0.000000 )     0.40983341
  WF centre and spread    2  (  0.000000, -0.000000,  0.000000 )     0.29652886
  WF centre and spread    3  ( -0.000000, -0.000000,  0.000000 )     0.29652896
  WF centre and spread    4  ( -0.000000,  0.000000,  0.000000 )     0.40983330
  WF centre and spread    5  (  0.000000,  0.000000, -0.000000 )     0.29652769
  WF centre and spread    6  ( -0.902511,  0.902512,  0.902512 )     1.00166387
  WF centre and spread    7  (  0.902512, -0.902512, -0.902512 )     1.00166390
  Sum of centres and spreads (  0.000001, -0.000001,  0.000000 )     3.71258000
 
   1994     0.000E+00     0.0000000020        3.7125799963      12.57  <-- CONV
        O_D=      0.0014078 O_OD=      0.2930064 O_TOT=      3.7125800 <-- SPRD
 Delta: O_D=  0.1517883E-17 O_OD= -0.1665335E-15 O_TOT=  0.0000000E+00 <-- DLTA
 ------------------------------------------------------------------------------
 Cycle:   1995
  WF centre and spread    1  ( -0.000000,  0.000000, -0.000000 )     0.40983341
  WF centre and spread    2  (  0.000000, -0.000000,  0.000000 )     0.29652886
  WF centre and spread    3  ( -0.000000, -0.000000,  0.000000 )     0.29652896
  WF centre and spread    4  ( -0.000000,  0.000000,  0.000000 )     0.40983330
  WF centre and spread    5  (  0.000000,  0.000000, -0.000000 )     0.29652769
  WF centre and spread    6  ( -0.902511,  0.902512,  0.902512 )     1.00166387
  WF centre and spread    7  (  0.902512, -0.902512, -0.902512 )     1.00166390
  Sum of centres and spreads (  0.000001, -0.000001,  0.000000 )     3.71258000
 
   1995     0.000E+00     0.0000000020        3.7125799963      12.57  <-- CONV
        O_D=      0.0014078 O_OD=      0.2930064 O_TOT=      3.7125800 <-- SPRD
 Delta: O_D=  0.3252607E-17 O_OD=  0.0000000E+00 O_TOT=  0.0000000E+00 <-- DLTA
 ------------------------------------------------------------------------------
 Cycle:   1996
  WF centre and spread    1  ( -0.000000,  0.000000, -0.000000 )     0.40983341
  WF centre and spread    2  (  0.000000, -0.000000,  0.000000 )     0.29652886
  WF centre and spread    3  ( -0.000000, -0.000000,  0.000000 )     0.29652896
  WF centre and spread    4  ( -0.000000,  0.000000,  0.000000 )     0.40983330
  WF centre and spread    5  (  0.000000,  0.000000, -0.000000 )     0.29652769
  WF centre and spread    6  ( -0.902511,  0.902512,  0.902512 )     1.00166387
  WF centre and spread    7  (  0.902512, -0.902512, -0.902512 )     1.00166390
  Sum of centres and spreads (  0.000001, -0.000001,  0.000000 )     3.71258000
 
   1996     0.000E+00     0.0000000020        3.7125799963      12.58  <-- CONV
        O_D=      0.0014078 O_OD=      0.2930064 O_TOT=      3.7125800 <-- SPRD
 Delta: O_D=  0.1517883E-17 O_OD=  0.1665335E-15 O_TOT=  0.0000000E+00 <-- DLTA
 ------------------------------------------------------------------------------
 Cycle:   1997
  WF centre and spread    1  ( -0.000000,  0.000000, -0.000000 )     0.40983341
  WF centre and spread    2  (  0.000000, -0.000000,  0.000000 )     0.29652886
  WF centre and spread    3  ( -0.000000, -0.000000,  0.000000 )     0.29652896
  WF centre and spread    4  ( -0.000000,  0.000000,  0.000000 )     0.40983330
  WF centre and spread    5  (  0.000000,  0.000000, -0.000000 )     0.29652769
  WF centre and spread    6  ( -0.902511,  0.902512,  0.902512 )     1.00166387
  WF centre and spread    7  (  0.902512, -0.902512, -0.902512 )     1.00166390
  Sum of centres and spreads (  0.000001, -0.000001,  0.000000 )     3.71258000
 
   1997     0.000E+00     0.0000000020        3.7125799963      12.59  <-- CONV
        O_D=      0.0014078 O_OD=      0.2930064 O_TOT=      3.7125800 <-- SPRD
 Delta: O_D=  0.3252607E-17 O_OD=  0.1665335E-15 O_TOT=  0.0000000E+00 <-- DLTA
 ------------------------------------------------------------------------------
 Cycle:   1998
  WF centre and spread    1  ( -0.000000,  0.000000, -0.000000 )     0.40983341
  WF centre and spread    2  (  0.000000, -0.000000,  0.000000 )     0.29652886
  WF centre and spread    3  ( -0.000000, -0.000000,  0.000000 )     0.29652896
  WF centre and spread    4  ( -0.000000,  0.000000,  0.000000 )     0.40983330
  WF centre and spread    5  (  0.000000,  0.000000, -0.000000 )     0.29652769
  WF centre and spread    6  ( -0.902511,  0.902512,  0.902512 )     1.00166387
  WF centre and spread    7  (  0.902512, -0.902512, -0.902512 )     1.00166390
  Sum of centres and spreads (  0.000001, -0.000001,  0.000000 )     3.71258000
 
   1998     0.000E+00     0.0000000020        3.7125799963      12.60  <-- CONV
        O_D=      0.0014078 O_OD=      0.2930064 O_TOT=      3.7125800 <-- SPRD
 Delta: O_D=  0.1734723E-17 O_OD= -0.1110223E-15 O_TOT=  0.0000000E+00 <-- DLTA
 ------------------------------------------------------------------------------
 Cycle:   1999
  WF centre and spread    1  ( -0.000000,  0.000000, -0.000000 )     0.40983341
  WF centre and spread    2  (  0.000000, -0.000000,  0.000000 )     0.29652886
  WF centre and spread    3  ( -0.000000, -0.000000,  0.000000 )     0.29652896
  WF centre and spread    4  ( -0.000000,  0.000000,  0.000000 )     0.40983330
  WF centre and spread    5  (  0.000000,  0.000000, -0.000000 )     0.29652769
  WF centre and spread    6  ( -0.902511,  0.902512,  0.902512 )     1.00166387
  WF centre and spread    7  (  0.902512, -0.902512, -0.902512 )     1.00166390
  Sum of centres and spreads (  0.000001, -0.000001,  0.000000 )     3.71258000
 
   1999     0.000E+00     0.0000000020        3.7125799963      12.60  <-- CONV
        O_D=      0.0014078 O_OD=      0.2930064 O_TOT=      3.7125800 <-- SPRD
 Delta: O_D=  0.2168404E-17 O_OD= -0.1665335E-15 O_TOT=  0.0000000E+00 <-- DLTA
 ------------------------------------------------------------------------------
 Cycle:   2000
  WF centre and spread    1  ( -0.000000,  0.000000, -0.000000 )     0.40983341
  WF centre and spread    2  (  0.000000, -0.000000,  0.000000 )     0.29652886
  WF centre and spread    3  ( -0.000000, -0.000000,  0.000000 )     0.29652896
  WF centre and spread    4  ( -0.000000,  0.000000,  0.000000 )     0.40983330
  WF centre and spread    5  (  0.000000,  0.000000, -0.000000 )     0.29652769
  WF centre and spread    6  ( -0.902511,  0.902512,  0.902512 )     1.00166387
  WF centre and spread    7  (  0.902512, -0.902512, -0.902512 )     1.00166390
  Sum of centres and spreads (  0.000001, -0.000001,  0.000000 )     3.71258000
 
   2000    -0.444E-15     0.0000000020        3.7125799963      12.61  <-- CONV
        O_D=      0.0014078 O_OD=      0.2930064 O_TOT=      3.7125800 <-- SPRD
 Delta: O_D=  0.1734723E-17 O_OD= -0.3330669E-15 O_TOT= -0.4440892E-15 <-- DLTA
 ------------------------------------------------------------------------------
 Final State
  WF centre and spread    1  ( -0.000000,  0.000000, -0.000000 )     0.40983341
  WF centre and spread    2  (  0.000000, -0.000000,  0.000000 )     0.29652886
  WF centre and spread    3  ( -0.000000, -0.000000,  0.000000 )     0.29652896
  WF centre and spread    4  ( -0.000000,  0.000000,  0.000000 )     0.40983330
  WF centre and spread    5  (  0.000000,  0.000000, -0.000000 )     0.29652769
  WF centre and spread    6  ( -0.902511,  0.902512,  0.902512 )     1.00166387
  WF centre and spread    7  (  0.902512, -0.902512, -0.902512 )     1.00166390
  Sum of centres and spreads (  0.000001, -0.000001,  0.000000 )     3.71258000
 
         Spreads (Ang^2)       Omega I      =     3.418165815
        ================       Omega D      =     0.001407796
                               Omega OD     =     0.293006385
    Final Spread (Ang^2)       Omega Total  =     3.712579996
 ------------------------------------------------------------------------------

 Writing checkpoint file copper.chk... done


 *===========================================================================*
 |                             TIMING INFORMATION                            |
 *===========================================================================*
 |    Tag                                                Ncalls      Time (s)|
 |---------------------------------------------------------------------------|
 |kmesh: get                                        :         1         0.065|
 |overlap: read                                     :         1         0.131|
 |dis: main                                         :         1         0.269|
 |wann: main                                        :         1        12.097|
 |plot: main                                        :         1         0.000|
 *---------------------------------------------------------------------------*
 All done: wannier90 exiting
