 written on 29May2024 at 16:06:27 
          64           8
    0.31728660875262    0.31728660875262    0.31728660875262    1.24167096930768
   -0.31728660875262   -0.31728660875262    0.31728660875262    1.24167096930768
   -0.31728660875262    0.31728660875262   -0.31728660875262    1.24167096930768
   -0.31728660875262    0.31728660875262    0.31728660875262    1.24167096930768
   -0.31728660875262   -0.31728660875262   -0.31728660875262    1.24167096930768
    0.31728660875262    0.31728660875262   -0.31728660875262    1.24167096930768
    0.31728660875262   -0.31728660875262    0.31728660875262    1.24167096930768
    0.31728660875262   -0.31728660875262   -0.31728660875262    1.24167096930768
    0.31728660875262    0.31728660875262    0.31728660875262    1.24167096930768
   -0.31728660875262   -0.31728660875262    0.31728660875262    1.24167096930768
   -0.31728660875262    0.31728660875262   -0.31728660875262    1.24167096930768
   -0.31728660875262    0.31728660875262    0.31728660875262    1.24167096930768
   -0.31728660875262   -0.31728660875262   -0.31728660875262    1.24167096930768
    0.31728660875262    0.31728660875262   -0.31728660875262    1.24167096930768
    0.31728660875262   -0.31728660875262    0.31728660875262    1.24167096930768
    0.31728660875262   -0.31728660875262   -0.31728660875262    1.24167096930768
    0.31728660875262    0.31728660875262    0.31728660875262    1.24167096930768
   -0.31728660875262   -0.31728660875262    0.31728660875262    1.24167096930768
   -0.31728660875262    0.31728660875262   -0.31728660875262    1.24167096930768
   -0.31728660875262    0.31728660875262    0.31728660875262    1.24167096930768
   -0.31728660875262   -0.31728660875262   -0.31728660875262    1.24167096930768
    0.31728660875262    0.31728660875262   -0.31728660875262    1.24167096930768
    0.31728660875262   -0.31728660875262    0.31728660875262    1.24167096930768
    0.31728660875262   -0.31728660875262   -0.31728660875262    1.24167096930768
    0.31728660875262    0.31728660875262    0.31728660875262    1.24167096930768
   -0.31728660875262   -0.31728660875262    0.31728660875262    1.24167096930768
   -0.31728660875262    0.31728660875262   -0.31728660875262    1.24167096930768
   -0.31728660875262    0.31728660875262    0.31728660875262    1.24167096930768
   -0.31728660875262   -0.31728660875262   -0.31728660875262    1.24167096930768
    0.31728660875262    0.31728660875262   -0.31728660875262    1.24167096930768
    0.31728660875262   -0.31728660875262    0.31728660875262    1.24167096930768
    0.31728660875262   -0.31728660875262   -0.31728660875262    1.24167096930768
    0.31728660875262    0.31728660875262    0.31728660875262    1.24167096930768
   -0.31728660875262   -0.31728660875262    0.31728660875262    1.24167096930768
   -0.31728660875262    0.31728660875262   -0.31728660875262    1.24167096930768
   -0.31728660875262    0.31728660875262    0.31728660875262    1.24167096930768
   -0.31728660875262   -0.31728660875262   -0.31728660875262    1.24167096930768
    0.31728660875262    0.31728660875262   -0.31728660875262    1.24167096930768
    0.31728660875262   -0.31728660875262    0.31728660875262    1.24167096930768
    0.31728660875262   -0.31728660875262   -0.31728660875262    1.24167096930768
    0.31728660875262    0.31728660875262    0.31728660875262    1.24167096930768
   -0.31728660875262   -0.31728660875262    0.31728660875262    1.24167096930768
   -0.31728660875262    0.31728660875262   -0.31728660875262    1.24167096930768
   -0.31728660875262    0.31728660875262    0.31728660875262    1.24167096930768
   -0.31728660875262   -0.31728660875262   -0.31728660875262    1.24167096930768
    0.31728660875262    0.31728660875262   -0.31728660875262    1.24167096930768
    0.31728660875262   -0.31728660875262    0.31728660875262    1.24167096930768
    0.31728660875262   -0.31728660875262   -0.31728660875262    1.24167096930768
    0.31728660875262    0.31728660875262    0.31728660875262    1.24167096930768
   -0.31728660875262   -0.31728660875262    0.31728660875262    1.24167096930768
   -0.31728660875262    0.31728660875262   -0.31728660875262    1.24167096930768
   -0.31728660875262    0.31728660875262    0.31728660875262    1.24167096930768
   -0.31728660875262   -0.31728660875262   -0.31728660875262    1.24167096930768
    0.31728660875262    0.31728660875262   -0.31728660875262    1.24167096930768
    0.31728660875262   -0.31728660875262    0.31728660875262    1.24167096930768
    0.31728660875262   -0.31728660875262   -0.31728660875262    1.24167096930768
    0.31728660875262    0.31728660875262    0.31728660875262    1.24167096930768
   -0.31728660875262   -0.31728660875262    0.31728660875262    1.24167096930768
   -0.31728660875262    0.31728660875262   -0.31728660875262    1.24167096930768
   -0.31728660875262    0.31728660875262    0.31728660875262    1.24167096930768
   -0.31728660875262   -0.31728660875262   -0.31728660875262    1.24167096930768
    0.31728660875262    0.31728660875262   -0.31728660875262    1.24167096930768
    0.31728660875262   -0.31728660875262    0.31728660875262    1.24167096930768
    0.31728660875262   -0.31728660875262   -0.31728660875262    1.24167096930768
    0.31728660875262    0.31728660875262    0.31728660875262    1.24167096930768
   -0.31728660875262   -0.31728660875262    0.31728660875262    1.24167096930768
   -0.31728660875262    0.31728660875262   -0.31728660875262    1.24167096930768
   -0.31728660875262    0.31728660875262    0.31728660875262    1.24167096930768
   -0.31728660875262   -0.31728660875262   -0.31728660875262    1.24167096930768
    0.31728660875262    0.31728660875262   -0.31728660875262    1.24167096930768
    0.31728660875262   -0.31728660875262    0.31728660875262    1.24167096930768
    0.31728660875262   -0.31728660875262   -0.31728660875262    1.24167096930768
    0.31728660875262    0.31728660875262    0.31728660875262    1.24167096930768
   -0.31728660875262   -0.31728660875262    0.31728660875262    1.24167096930768
   -0.31728660875262    0.31728660875262   -0.31728660875262    1.24167096930768
   -0.31728660875262    0.31728660875262    0.31728660875262    1.24167096930768
   -0.31728660875262   -0.31728660875262   -0.31728660875262    1.24167096930768
    0.31728660875262    0.31728660875262   -0.31728660875262    1.24167096930768
    0.31728660875262   -0.31728660875262    0.31728660875262    1.24167096930768
    0.31728660875262   -0.31728660875262   -0.31728660875262    1.24167096930768
    0.31728660875262    0.31728660875262    0.31728660875262    1.24167096930768
   -0.31728660875262   -0.31728660875262    0.31728660875262    1.24167096930768
   -0.31728660875262    0.31728660875262   -0.31728660875262    1.24167096930768
   -0.31728660875262    0.31728660875262    0.31728660875262    1.24167096930768
   -0.31728660875262   -0.31728660875262   -0.31728660875262    1.24167096930768
    0.31728660875262    0.31728660875262   -0.31728660875262    1.24167096930768
    0.31728660875262   -0.31728660875262    0.31728660875262    1.24167096930768
    0.31728660875262   -0.31728660875262   -0.31728660875262    1.24167096930768
    0.31728660875262    0.31728660875262    0.31728660875262    1.24167096930768
   -0.31728660875262   -0.31728660875262    0.31728660875262    1.24167096930768
   -0.31728660875262    0.31728660875262   -0.31728660875262    1.24167096930768
   -0.31728660875262    0.31728660875262    0.31728660875262    1.24167096930768
   -0.31728660875262   -0.31728660875262   -0.31728660875262    1.24167096930768
    0.31728660875262    0.31728660875262   -0.31728660875262    1.24167096930768
    0.31728660875262   -0.31728660875262    0.31728660875262    1.24167096930768
    0.31728660875262   -0.31728660875262   -0.31728660875262    1.24167096930768
    0.31728660875262    0.31728660875262    0.31728660875262    1.24167096930768
   -0.31728660875262   -0.31728660875262    0.31728660875262    1.24167096930768
   -0.31728660875262    0.31728660875262   -0.31728660875262    1.24167096930768
   -0.31728660875262    0.31728660875262    0.31728660875262    1.24167096930768
   -0.31728660875262   -0.31728660875262   -0.31728660875262    1.24167096930768
    0.31728660875262    0.31728660875262   -0.31728660875262    1.24167096930768
    0.31728660875262   -0.31728660875262    0.31728660875262    1.24167096930768
    0.31728660875262   -0.31728660875262   -0.31728660875262    1.24167096930768
    0.31728660875262    0.31728660875262    0.31728660875262    1.24167096930768
   -0.31728660875262   -0.31728660875262    0.31728660875262    1.24167096930768
   -0.31728660875262    0.31728660875262   -0.31728660875262    1.24167096930768
   -0.31728660875262    0.31728660875262    0.31728660875262    1.24167096930768
   -0.31728660875262   -0.31728660875262   -0.31728660875262    1.24167096930768
    0.31728660875262    0.31728660875262   -0.31728660875262    1.24167096930768
    0.31728660875262   -0.31728660875262    0.31728660875262    1.24167096930768
    0.31728660875262   -0.31728660875262   -0.31728660875262    1.24167096930768
    0.31728660875262    0.31728660875262    0.31728660875262    1.24167096930768
   -0.31728660875262   -0.31728660875262    0.31728660875262    1.24167096930768
   -0.31728660875262    0.31728660875262   -0.31728660875262    1.24167096930768
   -0.31728660875262    0.31728660875262    0.31728660875262    1.24167096930768
   -0.31728660875262   -0.31728660875262   -0.31728660875262    1.24167096930768
    0.31728660875262    0.31728660875262   -0.31728660875262    1.24167096930768
    0.31728660875262   -0.31728660875262    0.31728660875262    1.24167096930768
    0.31728660875262   -0.31728660875262   -0.31728660875262    1.24167096930768
    0.31728660875262    0.31728660875262    0.31728660875262    1.24167096930768
   -0.31728660875262   -0.31728660875262    0.31728660875262    1.24167096930768
   -0.31728660875262    0.31728660875262   -0.31728660875262    1.24167096930768
   -0.31728660875262    0.31728660875262    0.31728660875262    1.24167096930768
   -0.31728660875262   -0.31728660875262   -0.31728660875262    1.24167096930768
    0.31728660875262    0.31728660875262   -0.31728660875262    1.24167096930768
    0.31728660875262   -0.31728660875262    0.31728660875262    1.24167096930768
    0.31728660875262   -0.31728660875262   -0.31728660875262    1.24167096930768
    0.31728660875262    0.31728660875262    0.31728660875262    1.24167096930768
   -0.31728660875262   -0.31728660875262    0.31728660875262    1.24167096930768
   -0.31728660875262    0.31728660875262   -0.31728660875262    1.24167096930768
   -0.31728660875262    0.31728660875262    0.31728660875262    1.24167096930768
   -0.31728660875262   -0.31728660875262   -0.31728660875262    1.24167096930768
    0.31728660875262    0.31728660875262   -0.31728660875262    1.24167096930768
    0.31728660875262   -0.31728660875262    0.31728660875262    1.24167096930768
    0.31728660875262   -0.31728660875262   -0.31728660875262    1.24167096930768
    0.31728660875262    0.31728660875262    0.31728660875262    1.24167096930768
   -0.31728660875262   -0.31728660875262    0.31728660875262    1.24167096930768
   -0.31728660875262    0.31728660875262   -0.31728660875262    1.24167096930768
   -0.31728660875262    0.31728660875262    0.31728660875262    1.24167096930768
   -0.31728660875262   -0.31728660875262   -0.31728660875262    1.24167096930768
    0.31728660875262    0.31728660875262   -0.31728660875262    1.24167096930768
    0.31728660875262   -0.31728660875262    0.31728660875262    1.24167096930768
    0.31728660875262   -0.31728660875262   -0.31728660875262    1.24167096930768
    0.31728660875262    0.31728660875262    0.31728660875262    1.24167096930768
   -0.31728660875262   -0.31728660875262    0.31728660875262    1.24167096930768
   -0.31728660875262    0.31728660875262   -0.31728660875262    1.24167096930768
   -0.31728660875262    0.31728660875262    0.31728660875262    1.24167096930768
   -0.31728660875262   -0.31728660875262   -0.31728660875262    1.24167096930768
    0.31728660875262    0.31728660875262   -0.31728660875262    1.24167096930768
    0.31728660875262   -0.31728660875262    0.31728660875262    1.24167096930768
    0.31728660875262   -0.31728660875262   -0.31728660875262    1.24167096930768
    0.31728660875262    0.31728660875262    0.31728660875262    1.24167096930768
   -0.31728660875262   -0.31728660875262    0.31728660875262    1.24167096930768
   -0.31728660875262    0.31728660875262   -0.31728660875262    1.24167096930768
   -0.31728660875262    0.31728660875262    0.31728660875262    1.24167096930768
   -0.31728660875262   -0.31728660875262   -0.31728660875262    1.24167096930768
    0.31728660875262    0.31728660875262   -0.31728660875262    1.24167096930768
    0.31728660875262   -0.31728660875262    0.31728660875262    1.24167096930768
    0.31728660875262   -0.31728660875262   -0.31728660875262    1.24167096930768
    0.31728660875262    0.31728660875262    0.31728660875262    1.24167096930768
   -0.31728660875262   -0.31728660875262    0.31728660875262    1.24167096930768
   -0.31728660875262    0.31728660875262   -0.31728660875262    1.24167096930768
   -0.31728660875262    0.31728660875262    0.31728660875262    1.24167096930768
   -0.31728660875262   -0.31728660875262   -0.31728660875262    1.24167096930768
    0.31728660875262    0.31728660875262   -0.31728660875262    1.24167096930768
    0.31728660875262   -0.31728660875262    0.31728660875262    1.24167096930768
    0.31728660875262   -0.31728660875262   -0.31728660875262    1.24167096930768
    0.31728660875262    0.31728660875262    0.31728660875262    1.24167096930768
   -0.31728660875262   -0.31728660875262    0.31728660875262    1.24167096930768
   -0.31728660875262    0.31728660875262   -0.31728660875262    1.24167096930768
   -0.31728660875262    0.31728660875262    0.31728660875262    1.24167096930768
   -0.31728660875262   -0.31728660875262   -0.31728660875262    1.24167096930768
    0.31728660875262    0.31728660875262   -0.31728660875262    1.24167096930768
    0.31728660875262   -0.31728660875262    0.31728660875262    1.24167096930768
    0.31728660875262   -0.31728660875262   -0.31728660875262    1.24167096930768
    0.31728660875262    0.31728660875262    0.31728660875262    1.24167096930768
   -0.31728660875262   -0.31728660875262    0.31728660875262    1.24167096930768
   -0.31728660875262    0.31728660875262   -0.31728660875262    1.24167096930768
   -0.31728660875262    0.31728660875262    0.31728660875262    1.24167096930768
   -0.31728660875262   -0.31728660875262   -0.31728660875262    1.24167096930768
    0.31728660875262    0.31728660875262   -0.31728660875262    1.24167096930768
    0.31728660875262   -0.31728660875262    0.31728660875262    1.24167096930768
    0.31728660875262   -0.31728660875262   -0.31728660875262    1.24167096930768
    0.31728660875262    0.31728660875262    0.31728660875262    1.24167096930768
   -0.31728660875262   -0.31728660875262    0.31728660875262    1.24167096930768
   -0.31728660875262    0.31728660875262   -0.31728660875262    1.24167096930768
   -0.31728660875262    0.31728660875262    0.31728660875262    1.24167096930768
   -0.31728660875262   -0.31728660875262   -0.31728660875262    1.24167096930768
    0.31728660875262    0.31728660875262   -0.31728660875262    1.24167096930768
    0.31728660875262   -0.31728660875262    0.31728660875262    1.24167096930768
    0.31728660875262   -0.31728660875262   -0.31728660875262    1.24167096930768
    0.31728660875262    0.31728660875262    0.31728660875262    1.24167096930768
   -0.31728660875262   -0.31728660875262    0.31728660875262    1.24167096930768
   -0.31728660875262    0.31728660875262   -0.31728660875262    1.24167096930768
   -0.31728660875262    0.31728660875262    0.31728660875262    1.24167096930768
   -0.31728660875262   -0.31728660875262   -0.31728660875262    1.24167096930768
    0.31728660875262    0.31728660875262   -0.31728660875262    1.24167096930768
    0.31728660875262   -0.31728660875262    0.31728660875262    1.24167096930768
    0.31728660875262   -0.31728660875262   -0.31728660875262    1.24167096930768
    0.31728660875262    0.31728660875262    0.31728660875262    1.24167096930768
   -0.31728660875262   -0.31728660875262    0.31728660875262    1.24167096930768
   -0.31728660875262    0.31728660875262   -0.31728660875262    1.24167096930768
   -0.31728660875262    0.31728660875262    0.31728660875262    1.24167096930768
   -0.31728660875262   -0.31728660875262   -0.31728660875262    1.24167096930768
    0.31728660875262    0.31728660875262   -0.31728660875262    1.24167096930768
    0.31728660875262   -0.31728660875262    0.31728660875262    1.24167096930768
    0.31728660875262   -0.31728660875262   -0.31728660875262    1.24167096930768
    0.31728660875262    0.31728660875262    0.31728660875262    1.24167096930768
   -0.31728660875262   -0.31728660875262    0.31728660875262    1.24167096930768
   -0.31728660875262    0.31728660875262   -0.31728660875262    1.24167096930768
   -0.31728660875262    0.31728660875262    0.31728660875262    1.24167096930768
   -0.31728660875262   -0.31728660875262   -0.31728660875262    1.24167096930768
    0.31728660875262    0.31728660875262   -0.31728660875262    1.24167096930768
    0.31728660875262   -0.31728660875262    0.31728660875262    1.24167096930768
    0.31728660875262   -0.31728660875262   -0.31728660875262    1.24167096930768
    0.31728660875262    0.31728660875262    0.31728660875262    1.24167096930768
   -0.31728660875262   -0.31728660875262    0.31728660875262    1.24167096930768
   -0.31728660875262    0.31728660875262   -0.31728660875262    1.24167096930768
   -0.31728660875262    0.31728660875262    0.31728660875262    1.24167096930768
   -0.31728660875262   -0.31728660875262   -0.31728660875262    1.24167096930768
    0.31728660875262    0.31728660875262   -0.31728660875262    1.24167096930768
    0.31728660875262   -0.31728660875262    0.31728660875262    1.24167096930768
    0.31728660875262   -0.31728660875262   -0.31728660875262    1.24167096930768
    0.31728660875262    0.31728660875262    0.31728660875262    1.24167096930768
   -0.31728660875262   -0.31728660875262    0.31728660875262    1.24167096930768
   -0.31728660875262    0.31728660875262   -0.31728660875262    1.24167096930768
   -0.31728660875262    0.31728660875262    0.31728660875262    1.24167096930768
   -0.31728660875262   -0.31728660875262   -0.31728660875262    1.24167096930768
    0.31728660875262    0.31728660875262   -0.31728660875262    1.24167096930768
    0.31728660875262   -0.31728660875262    0.31728660875262    1.24167096930768
    0.31728660875262   -0.31728660875262   -0.31728660875262    1.24167096930768
    0.31728660875262    0.31728660875262    0.31728660875262    1.24167096930768
   -0.31728660875262   -0.31728660875262    0.31728660875262    1.24167096930768
   -0.31728660875262    0.31728660875262   -0.31728660875262    1.24167096930768
   -0.31728660875262    0.31728660875262    0.31728660875262    1.24167096930768
   -0.31728660875262   -0.31728660875262   -0.31728660875262    1.24167096930768
    0.31728660875262    0.31728660875262   -0.31728660875262    1.24167096930768
    0.31728660875262   -0.31728660875262    0.31728660875262    1.24167096930768
    0.31728660875262   -0.31728660875262   -0.31728660875262    1.24167096930768
    0.31728660875262    0.31728660875262    0.31728660875262    1.24167096930768
   -0.31728660875262   -0.31728660875262    0.31728660875262    1.24167096930768
   -0.31728660875262    0.31728660875262   -0.31728660875262    1.24167096930768
   -0.31728660875262    0.31728660875262    0.31728660875262    1.24167096930768
   -0.31728660875262   -0.31728660875262   -0.31728660875262    1.24167096930768
    0.31728660875262    0.31728660875262   -0.31728660875262    1.24167096930768
    0.31728660875262   -0.31728660875262    0.31728660875262    1.24167096930768
    0.31728660875262   -0.31728660875262   -0.31728660875262    1.24167096930768
    0.31728660875262    0.31728660875262    0.31728660875262    1.24167096930768
   -0.31728660875262   -0.31728660875262    0.31728660875262    1.24167096930768
   -0.31728660875262    0.31728660875262   -0.31728660875262    1.24167096930768
   -0.31728660875262    0.31728660875262    0.31728660875262    1.24167096930768
   -0.31728660875262   -0.31728660875262   -0.31728660875262    1.24167096930768
    0.31728660875262    0.31728660875262   -0.31728660875262    1.24167096930768
    0.31728660875262   -0.31728660875262    0.31728660875262    1.24167096930768
    0.31728660875262   -0.31728660875262   -0.31728660875262    1.24167096930768
    0.31728660875262    0.31728660875262    0.31728660875262    1.24167096930768
   -0.31728660875262   -0.31728660875262    0.31728660875262    1.24167096930768
   -0.31728660875262    0.31728660875262   -0.31728660875262    1.24167096930768
   -0.31728660875262    0.31728660875262    0.31728660875262    1.24167096930768
   -0.31728660875262   -0.31728660875262   -0.31728660875262    1.24167096930768
    0.31728660875262    0.31728660875262   -0.31728660875262    1.24167096930768
    0.31728660875262   -0.31728660875262    0.31728660875262    1.24167096930768
    0.31728660875262   -0.31728660875262   -0.31728660875262    1.24167096930768
    0.31728660875262    0.31728660875262    0.31728660875262    1.24167096930768
   -0.31728660875262   -0.31728660875262    0.31728660875262    1.24167096930768
   -0.31728660875262    0.31728660875262   -0.31728660875262    1.24167096930768
   -0.31728660875262    0.31728660875262    0.31728660875262    1.24167096930768
   -0.31728660875262   -0.31728660875262   -0.31728660875262    1.24167096930768
    0.31728660875262    0.31728660875262   -0.31728660875262    1.24167096930768
    0.31728660875262   -0.31728660875262    0.31728660875262    1.24167096930768
    0.31728660875262   -0.31728660875262   -0.31728660875262    1.24167096930768
    0.31728660875262    0.31728660875262    0.31728660875262    1.24167096930768
   -0.31728660875262   -0.31728660875262    0.31728660875262    1.24167096930768
   -0.31728660875262    0.31728660875262   -0.31728660875262    1.24167096930768
   -0.31728660875262    0.31728660875262    0.31728660875262    1.24167096930768
   -0.31728660875262   -0.31728660875262   -0.31728660875262    1.24167096930768
    0.31728660875262    0.31728660875262   -0.31728660875262    1.24167096930768
    0.31728660875262   -0.31728660875262    0.31728660875262    1.24167096930768
    0.31728660875262   -0.31728660875262   -0.31728660875262    1.24167096930768
    0.31728660875262    0.31728660875262    0.31728660875262    1.24167096930768
   -0.31728660875262   -0.31728660875262    0.31728660875262    1.24167096930768
   -0.31728660875262    0.31728660875262   -0.31728660875262    1.24167096930768
   -0.31728660875262    0.31728660875262    0.31728660875262    1.24167096930768
   -0.31728660875262   -0.31728660875262   -0.31728660875262    1.24167096930768
    0.31728660875262    0.31728660875262   -0.31728660875262    1.24167096930768
    0.31728660875262   -0.31728660875262    0.31728660875262    1.24167096930768
    0.31728660875262   -0.31728660875262   -0.31728660875262    1.24167096930768
    0.31728660875262    0.31728660875262    0.31728660875262    1.24167096930768
   -0.31728660875262   -0.31728660875262    0.31728660875262    1.24167096930768
   -0.31728660875262    0.31728660875262   -0.31728660875262    1.24167096930768
   -0.31728660875262    0.31728660875262    0.31728660875262    1.24167096930768
   -0.31728660875262   -0.31728660875262   -0.31728660875262    1.24167096930768
    0.31728660875262    0.31728660875262   -0.31728660875262    1.24167096930768
    0.31728660875262   -0.31728660875262    0.31728660875262    1.24167096930768
    0.31728660875262   -0.31728660875262   -0.31728660875262    1.24167096930768
    0.31728660875262    0.31728660875262    0.31728660875262    1.24167096930768
   -0.31728660875262   -0.31728660875262    0.31728660875262    1.24167096930768
   -0.31728660875262    0.31728660875262   -0.31728660875262    1.24167096930768
   -0.31728660875262    0.31728660875262    0.31728660875262    1.24167096930768
   -0.31728660875262   -0.31728660875262   -0.31728660875262    1.24167096930768
    0.31728660875262    0.31728660875262   -0.31728660875262    1.24167096930768
    0.31728660875262   -0.31728660875262    0.31728660875262    1.24167096930768
    0.31728660875262   -0.31728660875262   -0.31728660875262    1.24167096930768
    0.31728660875262    0.31728660875262    0.31728660875262    1.24167096930768
   -0.31728660875262   -0.31728660875262    0.31728660875262    1.24167096930768
   -0.31728660875262    0.31728660875262   -0.31728660875262    1.24167096930768
   -0.31728660875262    0.31728660875262    0.31728660875262    1.24167096930768
   -0.31728660875262   -0.31728660875262   -0.31728660875262    1.24167096930768
    0.31728660875262    0.31728660875262   -0.31728660875262    1.24167096930768
    0.31728660875262   -0.31728660875262    0.31728660875262    1.24167096930768
    0.31728660875262   -0.31728660875262   -0.31728660875262    1.24167096930768
    0.31728660875262    0.31728660875262    0.31728660875262    1.24167096930768
   -0.31728660875262   -0.31728660875262    0.31728660875262    1.24167096930768
   -0.31728660875262    0.31728660875262   -0.31728660875262    1.24167096930768
   -0.31728660875262    0.31728660875262    0.31728660875262    1.24167096930768
   -0.31728660875262   -0.31728660875262   -0.31728660875262    1.24167096930768
    0.31728660875262    0.31728660875262   -0.31728660875262    1.24167096930768
    0.31728660875262   -0.31728660875262    0.31728660875262    1.24167096930768
    0.31728660875262   -0.31728660875262   -0.31728660875262    1.24167096930768
    0.31728660875262    0.31728660875262    0.31728660875262    1.24167096930768
   -0.31728660875262   -0.31728660875262    0.31728660875262    1.24167096930768
   -0.31728660875262    0.31728660875262   -0.31728660875262    1.24167096930768
   -0.31728660875262    0.31728660875262    0.31728660875262    1.24167096930768
   -0.31728660875262   -0.31728660875262   -0.31728660875262    1.24167096930768
    0.31728660875262    0.31728660875262   -0.31728660875262    1.24167096930768
    0.31728660875262   -0.31728660875262    0.31728660875262    1.24167096930768
    0.31728660875262   -0.31728660875262   -0.31728660875262    1.24167096930768
    0.31728660875262    0.31728660875262    0.31728660875262    1.24167096930768
   -0.31728660875262   -0.31728660875262    0.31728660875262    1.24167096930768
   -0.31728660875262    0.31728660875262   -0.31728660875262    1.24167096930768
   -0.31728660875262    0.31728660875262    0.31728660875262    1.24167096930768
   -0.31728660875262   -0.31728660875262   -0.31728660875262    1.24167096930768
    0.31728660875262    0.31728660875262   -0.31728660875262    1.24167096930768
    0.31728660875262   -0.31728660875262    0.31728660875262    1.24167096930768
    0.31728660875262   -0.31728660875262   -0.31728660875262    1.24167096930768
    0.31728660875262    0.31728660875262    0.31728660875262    1.24167096930768
   -0.31728660875262   -0.31728660875262    0.31728660875262    1.24167096930768
   -0.31728660875262    0.31728660875262   -0.31728660875262    1.24167096930768
   -0.31728660875262    0.31728660875262    0.31728660875262    1.24167096930768
   -0.31728660875262   -0.31728660875262   -0.31728660875262    1.24167096930768
    0.31728660875262    0.31728660875262   -0.31728660875262    1.24167096930768
    0.31728660875262   -0.31728660875262    0.31728660875262    1.24167096930768
    0.31728660875262   -0.31728660875262   -0.31728660875262    1.24167096930768
    0.31728660875262    0.31728660875262    0.31728660875262    1.24167096930768
   -0.31728660875262   -0.31728660875262    0.31728660875262    1.24167096930768
   -0.31728660875262    0.31728660875262   -0.31728660875262    1.24167096930768
   -0.31728660875262    0.31728660875262    0.31728660875262    1.24167096930768
   -0.31728660875262   -0.31728660875262   -0.31728660875262    1.24167096930768
    0.31728660875262    0.31728660875262   -0.31728660875262    1.24167096930768
    0.31728660875262   -0.31728660875262    0.31728660875262    1.24167096930768
    0.31728660875262   -0.31728660875262   -0.31728660875262    1.24167096930768
    0.31728660875262    0.31728660875262    0.31728660875262    1.24167096930768
   -0.31728660875262   -0.31728660875262    0.31728660875262    1.24167096930768
   -0.31728660875262    0.31728660875262   -0.31728660875262    1.24167096930768
   -0.31728660875262    0.31728660875262    0.31728660875262    1.24167096930768
   -0.31728660875262   -0.31728660875262   -0.31728660875262    1.24167096930768
    0.31728660875262    0.31728660875262   -0.31728660875262    1.24167096930768
    0.31728660875262   -0.31728660875262    0.31728660875262    1.24167096930768
    0.31728660875262   -0.31728660875262   -0.31728660875262    1.24167096930768
    0.31728660875262    0.31728660875262    0.31728660875262    1.24167096930768
   -0.31728660875262   -0.31728660875262    0.31728660875262    1.24167096930768
   -0.31728660875262    0.31728660875262   -0.31728660875262    1.24167096930768
   -0.31728660875262    0.31728660875262    0.31728660875262    1.24167096930768
   -0.31728660875262   -0.31728660875262   -0.31728660875262    1.24167096930768
    0.31728660875262    0.31728660875262   -0.31728660875262    1.24167096930768
    0.31728660875262   -0.31728660875262    0.31728660875262    1.24167096930768
    0.31728660875262   -0.31728660875262   -0.31728660875262    1.24167096930768
    0.31728660875262    0.31728660875262    0.31728660875262    1.24167096930768
   -0.31728660875262   -0.31728660875262    0.31728660875262    1.24167096930768
   -0.31728660875262    0.31728660875262   -0.31728660875262    1.24167096930768
   -0.31728660875262    0.31728660875262    0.31728660875262    1.24167096930768
   -0.31728660875262   -0.31728660875262   -0.31728660875262    1.24167096930768
    0.31728660875262    0.31728660875262   -0.31728660875262    1.24167096930768
    0.31728660875262   -0.31728660875262    0.31728660875262    1.24167096930768
    0.31728660875262   -0.31728660875262   -0.31728660875262    1.24167096930768
    0.31728660875262    0.31728660875262    0.31728660875262    1.24167096930768
   -0.31728660875262   -0.31728660875262    0.31728660875262    1.24167096930768
   -0.31728660875262    0.31728660875262   -0.31728660875262    1.24167096930768
   -0.31728660875262    0.31728660875262    0.31728660875262    1.24167096930768
   -0.31728660875262   -0.31728660875262   -0.31728660875262    1.24167096930768
    0.31728660875262    0.31728660875262   -0.31728660875262    1.24167096930768
    0.31728660875262   -0.31728660875262    0.31728660875262    1.24167096930768
    0.31728660875262   -0.31728660875262   -0.31728660875262    1.24167096930768
    0.31728660875262    0.31728660875262    0.31728660875262    1.24167096930768
   -0.31728660875262   -0.31728660875262    0.31728660875262    1.24167096930768
   -0.31728660875262    0.31728660875262   -0.31728660875262    1.24167096930768
   -0.31728660875262    0.31728660875262    0.31728660875262    1.24167096930768
   -0.31728660875262   -0.31728660875262   -0.31728660875262    1.24167096930768
    0.31728660875262    0.31728660875262   -0.31728660875262    1.24167096930768
    0.31728660875262   -0.31728660875262    0.31728660875262    1.24167096930768
    0.31728660875262   -0.31728660875262   -0.31728660875262    1.24167096930768
    0.31728660875262    0.31728660875262    0.31728660875262    1.24167096930768
   -0.31728660875262   -0.31728660875262    0.31728660875262    1.24167096930768
   -0.31728660875262    0.31728660875262   -0.31728660875262    1.24167096930768
   -0.31728660875262    0.31728660875262    0.31728660875262    1.24167096930768
   -0.31728660875262   -0.31728660875262   -0.31728660875262    1.24167096930768
    0.31728660875262    0.31728660875262   -0.31728660875262    1.24167096930768
    0.31728660875262   -0.31728660875262    0.31728660875262    1.24167096930768
    0.31728660875262   -0.31728660875262   -0.31728660875262    1.24167096930768
    0.31728660875262    0.31728660875262    0.31728660875262    1.24167096930768
   -0.31728660875262   -0.31728660875262    0.31728660875262    1.24167096930768
   -0.31728660875262    0.31728660875262   -0.31728660875262    1.24167096930768
   -0.31728660875262    0.31728660875262    0.31728660875262    1.24167096930768
   -0.31728660875262   -0.31728660875262   -0.31728660875262    1.24167096930768
    0.31728660875262    0.31728660875262   -0.31728660875262    1.24167096930768
    0.31728660875262   -0.31728660875262    0.31728660875262    1.24167096930768
    0.31728660875262   -0.31728660875262   -0.31728660875262    1.24167096930768
    0.31728660875262    0.31728660875262    0.31728660875262    1.24167096930768
   -0.31728660875262   -0.31728660875262    0.31728660875262    1.24167096930768
   -0.31728660875262    0.31728660875262   -0.31728660875262    1.24167096930768
   -0.31728660875262    0.31728660875262    0.31728660875262    1.24167096930768
   -0.31728660875262   -0.31728660875262   -0.31728660875262    1.24167096930768
    0.31728660875262    0.31728660875262   -0.31728660875262    1.24167096930768
    0.31728660875262   -0.31728660875262    0.31728660875262    1.24167096930768
    0.31728660875262   -0.31728660875262   -0.31728660875262    1.24167096930768
    0.31728660875262    0.31728660875262    0.31728660875262    1.24167096930768
   -0.31728660875262   -0.31728660875262    0.31728660875262    1.24167096930768
   -0.31728660875262    0.31728660875262   -0.31728660875262    1.24167096930768
   -0.31728660875262    0.31728660875262    0.31728660875262    1.24167096930768
   -0.31728660875262   -0.31728660875262   -0.31728660875262    1.24167096930768
    0.31728660875262    0.31728660875262   -0.31728660875262    1.24167096930768
    0.31728660875262   -0.31728660875262    0.31728660875262    1.24167096930768
    0.31728660875262   -0.31728660875262   -0.31728660875262    1.24167096930768
    0.31728660875262    0.31728660875262    0.31728660875262    1.24167096930768
   -0.31728660875262   -0.31728660875262    0.31728660875262    1.24167096930768
   -0.31728660875262    0.31728660875262   -0.31728660875262    1.24167096930768
   -0.31728660875262    0.31728660875262    0.31728660875262    1.24167096930768
   -0.31728660875262   -0.31728660875262   -0.31728660875262    1.24167096930768
    0.31728660875262    0.31728660875262   -0.31728660875262    1.24167096930768
    0.31728660875262   -0.31728660875262    0.31728660875262    1.24167096930768
    0.31728660875262   -0.31728660875262   -0.31728660875262    1.24167096930768
    0.31728660875262    0.31728660875262    0.31728660875262    1.24167096930768
   -0.31728660875262   -0.31728660875262    0.31728660875262    1.24167096930768
   -0.31728660875262    0.31728660875262   -0.31728660875262    1.24167096930768
   -0.31728660875262    0.31728660875262    0.31728660875262    1.24167096930768
   -0.31728660875262   -0.31728660875262   -0.31728660875262    1.24167096930768
    0.31728660875262    0.31728660875262   -0.31728660875262    1.24167096930768
    0.31728660875262   -0.31728660875262    0.31728660875262    1.24167096930768
    0.31728660875262   -0.31728660875262   -0.31728660875262    1.24167096930768
    0.31728660875262    0.31728660875262    0.31728660875262    1.24167096930768
   -0.31728660875262   -0.31728660875262    0.31728660875262    1.24167096930768
   -0.31728660875262    0.31728660875262   -0.31728660875262    1.24167096930768
   -0.31728660875262    0.31728660875262    0.31728660875262    1.24167096930768
   -0.31728660875262   -0.31728660875262   -0.31728660875262    1.24167096930768
    0.31728660875262    0.31728660875262   -0.31728660875262    1.24167096930768
    0.31728660875262   -0.31728660875262    0.31728660875262    1.24167096930768
    0.31728660875262   -0.31728660875262   -0.31728660875262    1.24167096930768
    0.31728660875262    0.31728660875262    0.31728660875262    1.24167096930768
   -0.31728660875262   -0.31728660875262    0.31728660875262    1.24167096930768
   -0.31728660875262    0.31728660875262   -0.31728660875262    1.24167096930768
   -0.31728660875262    0.31728660875262    0.31728660875262    1.24167096930768
   -0.31728660875262   -0.31728660875262   -0.31728660875262    1.24167096930768
    0.31728660875262    0.31728660875262   -0.31728660875262    1.24167096930768
    0.31728660875262   -0.31728660875262    0.31728660875262    1.24167096930768
    0.31728660875262   -0.31728660875262   -0.31728660875262    1.24167096930768
    0.31728660875262    0.31728660875262    0.31728660875262    1.24167096930768
   -0.31728660875262   -0.31728660875262    0.31728660875262    1.24167096930768
   -0.31728660875262    0.31728660875262   -0.31728660875262    1.24167096930768
   -0.31728660875262    0.31728660875262    0.31728660875262    1.24167096930768
   -0.31728660875262   -0.31728660875262   -0.31728660875262    1.24167096930768
    0.31728660875262    0.31728660875262   -0.31728660875262    1.24167096930768
    0.31728660875262   -0.31728660875262    0.31728660875262    1.24167096930768
    0.31728660875262   -0.31728660875262   -0.31728660875262    1.24167096930768
    0.31728660875262    0.31728660875262    0.31728660875262    1.24167096930768
   -0.31728660875262   -0.31728660875262    0.31728660875262    1.24167096930768
   -0.31728660875262    0.31728660875262   -0.31728660875262    1.24167096930768
   -0.31728660875262    0.31728660875262    0.31728660875262    1.24167096930768
   -0.31728660875262   -0.31728660875262   -0.31728660875262    1.24167096930768
    0.31728660875262    0.31728660875262   -0.31728660875262    1.24167096930768
    0.31728660875262   -0.31728660875262    0.31728660875262    1.24167096930768
    0.31728660875262   -0.31728660875262   -0.31728660875262    1.24167096930768
    0.31728660875262    0.31728660875262    0.31728660875262    1.24167096930768
   -0.31728660875262   -0.31728660875262    0.31728660875262    1.24167096930768
   -0.31728660875262    0.31728660875262   -0.31728660875262    1.24167096930768
   -0.31728660875262    0.31728660875262    0.31728660875262    1.24167096930768
   -0.31728660875262   -0.31728660875262   -0.31728660875262    1.24167096930768
    0.31728660875262    0.31728660875262   -0.31728660875262    1.24167096930768
    0.31728660875262   -0.31728660875262    0.31728660875262    1.24167096930768
    0.31728660875262   -0.31728660875262   -0.31728660875262    1.24167096930768
    0.31728660875262    0.31728660875262    0.31728660875262    1.24167096930768
   -0.31728660875262   -0.31728660875262    0.31728660875262    1.24167096930768
   -0.31728660875262    0.31728660875262   -0.31728660875262    1.24167096930768
   -0.31728660875262    0.31728660875262    0.31728660875262    1.24167096930768
   -0.31728660875262   -0.31728660875262   -0.31728660875262    1.24167096930768
    0.31728660875262    0.31728660875262   -0.31728660875262    1.24167096930768
    0.31728660875262   -0.31728660875262    0.31728660875262    1.24167096930768
    0.31728660875262   -0.31728660875262   -0.31728660875262    1.24167096930768
    0.31728660875262    0.31728660875262    0.31728660875262    1.24167096930768
   -0.31728660875262   -0.31728660875262    0.31728660875262    1.24167096930768
   -0.31728660875262    0.31728660875262   -0.31728660875262    1.24167096930768
   -0.31728660875262    0.31728660875262    0.31728660875262    1.24167096930768
   -0.31728660875262   -0.31728660875262   -0.31728660875262    1.24167096930768
    0.31728660875262    0.31728660875262   -0.31728660875262    1.24167096930768
    0.31728660875262   -0.31728660875262    0.31728660875262    1.24167096930768
    0.31728660875262   -0.31728660875262   -0.31728660875262    1.24167096930768
    0.31728660875262    0.31728660875262    0.31728660875262    1.24167096930768
   -0.31728660875262   -0.31728660875262    0.31728660875262    1.24167096930768
   -0.31728660875262    0.31728660875262   -0.31728660875262    1.24167096930768
   -0.31728660875262    0.31728660875262    0.31728660875262    1.24167096930768
   -0.31728660875262   -0.31728660875262   -0.31728660875262    1.24167096930768
    0.31728660875262    0.31728660875262   -0.31728660875262    1.24167096930768
    0.31728660875262   -0.31728660875262    0.31728660875262    1.24167096930768
    0.31728660875262   -0.31728660875262   -0.31728660875262    1.24167096930768
    0.31728660875262    0.31728660875262    0.31728660875262    1.24167096930768
   -0.31728660875262   -0.31728660875262    0.31728660875262    1.24167096930768
   -0.31728660875262    0.31728660875262   -0.31728660875262    1.24167096930768
   -0.31728660875262    0.31728660875262    0.31728660875262    1.24167096930768
   -0.31728660875262   -0.31728660875262   -0.31728660875262    1.24167096930768
    0.31728660875262    0.31728660875262   -0.31728660875262    1.24167096930768
    0.31728660875262   -0.31728660875262    0.31728660875262    1.24167096930768
    0.31728660875262   -0.31728660875262   -0.31728660875262    1.24167096930768
