 written on  4Apr2024 at 11:27:42 
          64           8
    0.31728660875262    0.31728660875262    0.31728660875262    1.24167096930768
   -0.31728660875262   -0.31728660875262    0.31728660875262    1.24167096930768
   -0.31728660875262    0.31728660875262   -0.31728660875262    1.24167096930768
   -0.31728660875262    0.31728660875262    0.31728660875262    1.24167096930768
   -0.31728660875262   -0.31728660875262   -0.31728660875262    1.24167096930768
    0.31728660875262    0.31728660875262   -0.31728660875262    1.24167096930768
    0.31728660875262   -0.31728660875262    0.31728660875262    1.24167096930768
    0.31728660875262   -0.31728660875262   -0.31728660875262    1.24167096930768
    0.31728660875262    0.31728660875262    0.31728660875262    1.24167096930768
   -0.31728660875262   -0.31728660875262    0.31728660875262    1.24167096930768
   -0.31728660875262    0.31728660875262   -0.31728660875262    1.24167096930768
   -0.31728660875262    0.31728660875262    0.31728660875262    1.24167096930768
   -0.31728660875262   -0.31728660875262   -0.31728660875262    1.24167096930768
    0.31728660875262    0.31728660875262   -0.31728660875262    1.24167096930768
    0.31728660875262   -0.31728660875262    0.31728660875262    1.24167096930768
    0.31728660875262   -0.31728660875262   -0.31728660875262    1.24167096930768
    0.31728660875262    0.31728660875262    0.31728660875262    1.24167096930768
   -0.31728660875262   -0.31728660875262    0.31728660875262    1.24167096930768
   -0.31728660875262    0.31728660875262   -0.31728660875262    1.24167096930768
   -0.31728660875262    0.31728660875262    0.31728660875262    1.24167096930768
   -0.31728660875262   -0.31728660875262   -0.31728660875262    1.24167096930768
    0.31728660875262    0.31728660875262   -0.31728660875262    1.24167096930768
    0.31728660875262   -0.31728660875262    0.31728660875262    1.24167096930768
    0.31728660875262   -0.31728660875262   -0.31728660875262    1.24167096930768
    0.31728660875262    0.31728660875262    0.31728660875262    1.24167096930768
   -0.31728660875262   -0.31728660875262    0.31728660875262    1.24167096930768
   -0.31728660875262    0.31728660875262   -0.31728660875262    1.24167096930768
   -0.31728660875262    0.31728660875262    0.31728660875262    1.24167096930768
   -0.31728660875262   -0.31728660875262   -0.31728660875262    1.24167096930768
    0.31728660875262    0.31728660875262   -0.31728660875262    1.24167096930768
    0.31728660875262   -0.31728660875262    0.31728660875262    1.24167096930768
    0.31728660875262   -0.31728660875262   -0.31728660875262    1.24167096930768
    0.31728660875262    0.31728660875262    0.31728660875262    1.24167096930768
   -0.31728660875262   -0.31728660875262    0.31728660875262    1.24167096930768
   -0.31728660875262    0.31728660875262   -0.31728660875262    1.24167096930768
   -0.31728660875262    0.31728660875262    0.31728660875262    1.24167096930768
   -0.31728660875262   -0.31728660875262   -0.31728660875262    1.24167096930768
    0.31728660875262    0.31728660875262   -0.31728660875262    1.24167096930768
    0.31728660875262   -0.31728660875262    0.31728660875262    1.24167096930768
    0.31728660875262   -0.31728660875262   -0.31728660875262    1.24167096930768
    0.31728660875262    0.31728660875262    0.31728660875262    1.24167096930768
   -0.31728660875262   -0.31728660875262    0.31728660875262    1.24167096930768
   -0.31728660875262    0.31728660875262   -0.31728660875262    1.24167096930768
   -0.31728660875262    0.31728660875262    0.31728660875262    1.24167096930768
   -0.31728660875262   -0.31728660875262   -0.31728660875262    1.24167096930768
    0.31728660875262    0.31728660875262   -0.31728660875262    1.24167096930768
    0.31728660875262   -0.31728660875262    0.31728660875262    1.24167096930768
    0.31728660875262   -0.31728660875262   -0.31728660875262    1.24167096930768
    0.31728660875262    0.31728660875262    0.31728660875262    1.24167096930768
   -0.31728660875262   -0.31728660875262    0.31728660875262    1.24167096930768
   -0.31728660875262    0.31728660875262   -0.31728660875262    1.24167096930768
   -0.31728660875262    0.31728660875262    0.31728660875262    1.24167096930768
   -0.31728660875262   -0.31728660875262   -0.31728660875262    1.24167096930768
    0.31728660875262    0.31728660875262   -0.31728660875262    1.24167096930768
    0.31728660875262   -0.31728660875262    0.31728660875262    1.24167096930768
    0.31728660875262   -0.31728660875262   -0.31728660875262    1.24167096930768
    0.31728660875262    0.31728660875262    0.31728660875262    1.24167096930768
   -0.31728660875262   -0.31728660875262    0.31728660875262    1.24167096930768
   -0.31728660875262    0.31728660875262   -0.31728660875262    1.24167096930768
   -0.31728660875262    0.31728660875262    0.31728660875262    1.24167096930768
   -0.31728660875262   -0.31728660875262   -0.31728660875262    1.24167096930768
    0.31728660875262    0.31728660875262   -0.31728660875262    1.24167096930768
    0.31728660875262   -0.31728660875262    0.31728660875262    1.24167096930768
    0.31728660875262   -0.31728660875262   -0.31728660875262    1.24167096930768
    0.31728660875262    0.31728660875262    0.31728660875262    1.24167096930768
   -0.31728660875262   -0.31728660875262    0.31728660875262    1.24167096930768
   -0.31728660875262    0.31728660875262   -0.31728660875262    1.24167096930768
   -0.31728660875262    0.31728660875262    0.31728660875262    1.24167096930768
   -0.31728660875262   -0.31728660875262   -0.31728660875262    1.24167096930768
    0.31728660875262    0.31728660875262   -0.31728660875262    1.24167096930768
    0.31728660875262   -0.31728660875262    0.31728660875262    1.24167096930768
    0.31728660875262   -0.31728660875262   -0.31728660875262    1.24167096930768
    0.31728660875262    0.31728660875262    0.31728660875262    1.24167096930768
   -0.31728660875262   -0.31728660875262    0.31728660875262    1.24167096930768
   -0.31728660875262    0.31728660875262   -0.31728660875262    1.24167096930768
   -0.31728660875262    0.31728660875262    0.31728660875262    1.24167096930768
   -0.31728660875262   -0.31728660875262   -0.31728660875262    1.24167096930768
    0.31728660875262    0.31728660875262   -0.31728660875262    1.24167096930768
    0.31728660875262   -0.31728660875262    0.31728660875262    1.24167096930768
    0.31728660875262   -0.31728660875262   -0.31728660875262    1.24167096930768
    0.31728660875262    0.31728660875262    0.31728660875262    1.24167096930768
   -0.31728660875262   -0.31728660875262    0.31728660875262    1.24167096930768
   -0.31728660875262    0.31728660875262   -0.31728660875262    1.24167096930768
   -0.31728660875262    0.31728660875262    0.31728660875262    1.24167096930768
   -0.31728660875262   -0.31728660875262   -0.31728660875262    1.24167096930768
    0.31728660875262    0.31728660875262   -0.31728660875262    1.24167096930768
    0.31728660875262   -0.31728660875262    0.31728660875262    1.24167096930768
    0.31728660875262   -0.31728660875262   -0.31728660875262    1.24167096930768
    0.31728660875262    0.31728660875262    0.31728660875262    1.24167096930768
   -0.31728660875262   -0.31728660875262    0.31728660875262    1.24167096930768
   -0.31728660875262    0.31728660875262   -0.31728660875262    1.24167096930768
   -0.31728660875262    0.31728660875262    0.31728660875262    1.24167096930768
   -0.31728660875262   -0.31728660875262   -0.31728660875262    1.24167096930768
    0.31728660875262    0.31728660875262   -0.31728660875262    1.24167096930768
    0.31728660875262   -0.31728660875262    0.31728660875262    1.24167096930768
    0.31728660875262   -0.31728660875262   -0.31728660875262    1.24167096930768
    0.31728660875262    0.31728660875262    0.31728660875262    1.24167096930768
   -0.31728660875262   -0.31728660875262    0.31728660875262    1.24167096930768
   -0.31728660875262    0.31728660875262   -0.31728660875262    1.24167096930768
   -0.31728660875262    0.31728660875262    0.31728660875262    1.24167096930768
   -0.31728660875262   -0.31728660875262   -0.31728660875262    1.24167096930768
    0.31728660875262    0.31728660875262   -0.31728660875262    1.24167096930768
    0.31728660875262   -0.31728660875262    0.31728660875262    1.24167096930768
    0.31728660875262   -0.31728660875262   -0.31728660875262    1.24167096930768
    0.31728660875262    0.31728660875262    0.31728660875262    1.24167096930768
   -0.31728660875262   -0.31728660875262    0.31728660875262    1.24167096930768
   -0.31728660875262    0.31728660875262   -0.31728660875262    1.24167096930768
   -0.31728660875262    0.31728660875262    0.31728660875262    1.24167096930768
   -0.31728660875262   -0.31728660875262   -0.31728660875262    1.24167096930768
    0.31728660875262    0.31728660875262   -0.31728660875262    1.24167096930768
    0.31728660875262   -0.31728660875262    0.31728660875262    1.24167096930768
    0.31728660875262   -0.31728660875262   -0.31728660875262    1.24167096930768
    0.31728660875262    0.31728660875262    0.31728660875262    1.24167096930768
   -0.31728660875262   -0.31728660875262    0.31728660875262    1.24167096930768
   -0.31728660875262    0.31728660875262   -0.31728660875262    1.24167096930768
   -0.31728660875262    0.31728660875262    0.31728660875262    1.24167096930768
   -0.31728660875262   -0.31728660875262   -0.31728660875262    1.24167096930768
    0.31728660875262    0.31728660875262   -0.31728660875262    1.24167096930768
    0.31728660875262   -0.31728660875262    0.31728660875262    1.24167096930768
    0.31728660875262   -0.31728660875262   -0.31728660875262    1.24167096930768
    0.31728660875262    0.31728660875262    0.31728660875262    1.24167096930768
   -0.31728660875262   -0.31728660875262    0.31728660875262    1.24167096930768
   -0.31728660875262    0.31728660875262   -0.31728660875262    1.24167096930768
   -0.31728660875262    0.31728660875262    0.31728660875262    1.24167096930768
   -0.31728660875262   -0.31728660875262   -0.31728660875262    1.24167096930768
    0.31728660875262    0.31728660875262   -0.31728660875262    1.24167096930768
    0.31728660875262   -0.31728660875262    0.31728660875262    1.24167096930768
    0.31728660875262   -0.31728660875262   -0.31728660875262    1.24167096930768
    0.31728660875262    0.31728660875262    0.31728660875262    1.24167096930768
   -0.31728660875262   -0.31728660875262    0.31728660875262    1.24167096930768
   -0.31728660875262    0.31728660875262   -0.31728660875262    1.24167096930768
   -0.31728660875262    0.31728660875262    0.31728660875262    1.24167096930768
   -0.31728660875262   -0.31728660875262   -0.31728660875262    1.24167096930768
    0.31728660875262    0.31728660875262   -0.31728660875262    1.24167096930768
    0.31728660875262   -0.31728660875262    0.31728660875262    1.24167096930768
    0.31728660875262   -0.31728660875262   -0.31728660875262    1.24167096930768
    0.31728660875262    0.31728660875262    0.31728660875262    1.24167096930768
   -0.31728660875262   -0.31728660875262    0.31728660875262    1.24167096930768
   -0.31728660875262    0.31728660875262   -0.31728660875262    1.24167096930768
   -0.31728660875262    0.31728660875262    0.31728660875262    1.24167096930768
   -0.31728660875262   -0.31728660875262   -0.31728660875262    1.24167096930768
    0.31728660875262    0.31728660875262   -0.31728660875262    1.24167096930768
    0.31728660875262   -0.31728660875262    0.31728660875262    1.24167096930768
    0.31728660875262   -0.31728660875262   -0.31728660875262    1.24167096930768
    0.31728660875262    0.31728660875262    0.31728660875262    1.24167096930768
   -0.31728660875262   -0.31728660875262    0.31728660875262    1.24167096930768
   -0.31728660875262    0.31728660875262   -0.31728660875262    1.24167096930768
   -0.31728660875262    0.31728660875262    0.31728660875262    1.24167096930768
   -0.31728660875262   -0.31728660875262   -0.31728660875262    1.24167096930768
    0.31728660875262    0.31728660875262   -0.31728660875262    1.24167096930768
    0.31728660875262   -0.31728660875262    0.31728660875262    1.24167096930768
    0.31728660875262   -0.31728660875262   -0.31728660875262    1.24167096930768
    0.31728660875262    0.31728660875262    0.31728660875262    1.24167096930768
   -0.31728660875262   -0.31728660875262    0.31728660875262    1.24167096930768
   -0.31728660875262    0.31728660875262   -0.31728660875262    1.24167096930768
   -0.31728660875262    0.31728660875262    0.31728660875262    1.24167096930768
   -0.31728660875262   -0.31728660875262   -0.31728660875262    1.24167096930768
    0.31728660875262    0.31728660875262   -0.31728660875262    1.24167096930768
    0.31728660875262   -0.31728660875262    0.31728660875262    1.24167096930768
    0.31728660875262   -0.31728660875262   -0.31728660875262    1.24167096930768
    0.31728660875262    0.31728660875262    0.31728660875262    1.24167096930768
   -0.31728660875262   -0.31728660875262    0.31728660875262    1.24167096930768
   -0.31728660875262    0.31728660875262   -0.31728660875262    1.24167096930768
   -0.31728660875262    0.31728660875262    0.31728660875262    1.24167096930768
   -0.31728660875262   -0.31728660875262   -0.31728660875262    1.24167096930768
    0.31728660875262    0.31728660875262   -0.31728660875262    1.24167096930768
    0.31728660875262   -0.31728660875262    0.31728660875262    1.24167096930768
    0.31728660875262   -0.31728660875262   -0.31728660875262    1.24167096930768
    0.31728660875262    0.31728660875262    0.31728660875262    1.24167096930768
   -0.31728660875262   -0.31728660875262    0.31728660875262    1.24167096930768
   -0.31728660875262    0.31728660875262   -0.31728660875262    1.24167096930768
   -0.31728660875262    0.31728660875262    0.31728660875262    1.24167096930768
   -0.31728660875262   -0.31728660875262   -0.31728660875262    1.24167096930768
    0.31728660875262    0.31728660875262   -0.31728660875262    1.24167096930768
    0.31728660875262   -0.31728660875262    0.31728660875262    1.24167096930768
    0.31728660875262   -0.31728660875262   -0.31728660875262    1.24167096930768
    0.31728660875262    0.31728660875262    0.31728660875262    1.24167096930768
   -0.31728660875262   -0.31728660875262    0.31728660875262    1.24167096930768
   -0.31728660875262    0.31728660875262   -0.31728660875262    1.24167096930768
   -0.31728660875262    0.31728660875262    0.31728660875262    1.24167096930768
   -0.31728660875262   -0.31728660875262   -0.31728660875262    1.24167096930768
    0.31728660875262    0.31728660875262   -0.31728660875262    1.24167096930768
    0.31728660875262   -0.31728660875262    0.31728660875262    1.24167096930768
    0.31728660875262   -0.31728660875262   -0.31728660875262    1.24167096930768
    0.31728660875262    0.31728660875262    0.31728660875262    1.24167096930768
   -0.31728660875262   -0.31728660875262    0.31728660875262    1.24167096930768
   -0.31728660875262    0.31728660875262   -0.31728660875262    1.24167096930768
   -0.31728660875262    0.31728660875262    0.31728660875262    1.24167096930768
   -0.31728660875262   -0.31728660875262   -0.31728660875262    1.24167096930768
    0.31728660875262    0.31728660875262   -0.31728660875262    1.24167096930768
    0.31728660875262   -0.31728660875262    0.31728660875262    1.24167096930768
    0.31728660875262   -0.31728660875262   -0.31728660875262    1.24167096930768
    0.31728660875262    0.31728660875262    0.31728660875262    1.24167096930768
   -0.31728660875262   -0.31728660875262    0.31728660875262    1.24167096930768
   -0.31728660875262    0.31728660875262   -0.31728660875262    1.24167096930768
   -0.31728660875262    0.31728660875262    0.31728660875262    1.24167096930768
   -0.31728660875262   -0.31728660875262   -0.31728660875262    1.24167096930768
    0.31728660875262    0.31728660875262   -0.31728660875262    1.24167096930768
    0.31728660875262   -0.31728660875262    0.31728660875262    1.24167096930768
    0.31728660875262   -0.31728660875262   -0.31728660875262    1.24167096930768
    0.31728660875262    0.31728660875262    0.31728660875262    1.24167096930768
   -0.31728660875262   -0.31728660875262    0.31728660875262    1.24167096930768
   -0.31728660875262    0.31728660875262   -0.31728660875262    1.24167096930768
   -0.31728660875262    0.31728660875262    0.31728660875262    1.24167096930768
   -0.31728660875262   -0.31728660875262   -0.31728660875262    1.24167096930768
    0.31728660875262    0.31728660875262   -0.31728660875262    1.24167096930768
    0.31728660875262   -0.31728660875262    0.31728660875262    1.24167096930768
    0.31728660875262   -0.31728660875262   -0.31728660875262    1.24167096930768
    0.31728660875262    0.31728660875262    0.31728660875262    1.24167096930768
   -0.31728660875262   -0.31728660875262    0.31728660875262    1.24167096930768
   -0.31728660875262    0.31728660875262   -0.31728660875262    1.24167096930768
   -0.31728660875262    0.31728660875262    0.31728660875262    1.24167096930768
   -0.31728660875262   -0.31728660875262   -0.31728660875262    1.24167096930768
    0.31728660875262    0.31728660875262   -0.31728660875262    1.24167096930768
    0.31728660875262   -0.31728660875262    0.31728660875262    1.24167096930768
    0.31728660875262   -0.31728660875262   -0.31728660875262    1.24167096930768
    0.31728660875262    0.31728660875262    0.31728660875262    1.24167096930768
   -0.31728660875262   -0.31728660875262    0.31728660875262    1.24167096930768
   -0.31728660875262    0.31728660875262   -0.31728660875262    1.24167096930768
   -0.31728660875262    0.31728660875262    0.31728660875262    1.24167096930768
   -0.31728660875262   -0.31728660875262   -0.31728660875262    1.24167096930768
    0.31728660875262    0.31728660875262   -0.31728660875262    1.24167096930768
    0.31728660875262   -0.31728660875262    0.31728660875262    1.24167096930768
    0.31728660875262   -0.31728660875262   -0.31728660875262    1.24167096930768
    0.31728660875262    0.31728660875262    0.31728660875262    1.24167096930768
   -0.31728660875262   -0.31728660875262    0.31728660875262    1.24167096930768
   -0.31728660875262    0.31728660875262   -0.31728660875262    1.24167096930768
   -0.31728660875262    0.31728660875262    0.31728660875262    1.24167096930768
   -0.31728660875262   -0.31728660875262   -0.31728660875262    1.24167096930768
    0.31728660875262    0.31728660875262   -0.31728660875262    1.24167096930768
    0.31728660875262   -0.31728660875262    0.31728660875262    1.24167096930768
    0.31728660875262   -0.31728660875262   -0.31728660875262    1.24167096930768
    0.31728660875262    0.31728660875262    0.31728660875262    1.24167096930768
   -0.31728660875262   -0.31728660875262    0.31728660875262    1.24167096930768
   -0.31728660875262    0.31728660875262   -0.31728660875262    1.24167096930768
   -0.31728660875262    0.31728660875262    0.31728660875262    1.24167096930768
   -0.31728660875262   -0.31728660875262   -0.31728660875262    1.24167096930768
    0.31728660875262    0.31728660875262   -0.31728660875262    1.24167096930768
    0.31728660875262   -0.31728660875262    0.31728660875262    1.24167096930768
    0.31728660875262   -0.31728660875262   -0.31728660875262    1.24167096930768
    0.31728660875262    0.31728660875262    0.31728660875262    1.24167096930768
   -0.31728660875262   -0.31728660875262    0.31728660875262    1.24167096930768
   -0.31728660875262    0.31728660875262   -0.31728660875262    1.24167096930768
   -0.31728660875262    0.31728660875262    0.31728660875262    1.24167096930768
   -0.31728660875262   -0.31728660875262   -0.31728660875262    1.24167096930768
    0.31728660875262    0.31728660875262   -0.31728660875262    1.24167096930768
    0.31728660875262   -0.31728660875262    0.31728660875262    1.24167096930768
    0.31728660875262   -0.31728660875262   -0.31728660875262    1.24167096930768
    0.31728660875262    0.31728660875262    0.31728660875262    1.24167096930768
   -0.31728660875262   -0.31728660875262    0.31728660875262    1.24167096930768
   -0.31728660875262    0.31728660875262   -0.31728660875262    1.24167096930768
   -0.31728660875262    0.31728660875262    0.31728660875262    1.24167096930768
   -0.31728660875262   -0.31728660875262   -0.31728660875262    1.24167096930768
    0.31728660875262    0.31728660875262   -0.31728660875262    1.24167096930768
    0.31728660875262   -0.31728660875262    0.31728660875262    1.24167096930768
    0.31728660875262   -0.31728660875262   -0.31728660875262    1.24167096930768
    0.31728660875262    0.31728660875262    0.31728660875262    1.24167096930768
   -0.31728660875262   -0.31728660875262    0.31728660875262    1.24167096930768
   -0.31728660875262    0.31728660875262   -0.31728660875262    1.24167096930768
   -0.31728660875262    0.31728660875262    0.31728660875262    1.24167096930768
   -0.31728660875262   -0.31728660875262   -0.31728660875262    1.24167096930768
    0.31728660875262    0.31728660875262   -0.31728660875262    1.24167096930768
    0.31728660875262   -0.31728660875262    0.31728660875262    1.24167096930768
    0.31728660875262   -0.31728660875262   -0.31728660875262    1.24167096930768
    0.31728660875262    0.31728660875262    0.31728660875262    1.24167096930768
   -0.31728660875262   -0.31728660875262    0.31728660875262    1.24167096930768
   -0.31728660875262    0.31728660875262   -0.31728660875262    1.24167096930768
   -0.31728660875262    0.31728660875262    0.31728660875262    1.24167096930768
   -0.31728660875262   -0.31728660875262   -0.31728660875262    1.24167096930768
    0.31728660875262    0.31728660875262   -0.31728660875262    1.24167096930768
    0.31728660875262   -0.31728660875262    0.31728660875262    1.24167096930768
    0.31728660875262   -0.31728660875262   -0.31728660875262    1.24167096930768
    0.31728660875262    0.31728660875262    0.31728660875262    1.24167096930768
   -0.31728660875262   -0.31728660875262    0.31728660875262    1.24167096930768
   -0.31728660875262    0.31728660875262   -0.31728660875262    1.24167096930768
   -0.31728660875262    0.31728660875262    0.31728660875262    1.24167096930768
   -0.31728660875262   -0.31728660875262   -0.31728660875262    1.24167096930768
    0.31728660875262    0.31728660875262   -0.31728660875262    1.24167096930768
    0.31728660875262   -0.31728660875262    0.31728660875262    1.24167096930768
    0.31728660875262   -0.31728660875262   -0.31728660875262    1.24167096930768
    0.31728660875262    0.31728660875262    0.31728660875262    1.24167096930768
   -0.31728660875262   -0.31728660875262    0.31728660875262    1.24167096930768
   -0.31728660875262    0.31728660875262   -0.31728660875262    1.24167096930768
   -0.31728660875262    0.31728660875262    0.31728660875262    1.24167096930768
   -0.31728660875262   -0.31728660875262   -0.31728660875262    1.24167096930768
    0.31728660875262    0.31728660875262   -0.31728660875262    1.24167096930768
    0.31728660875262   -0.31728660875262    0.31728660875262    1.24167096930768
    0.31728660875262   -0.31728660875262   -0.31728660875262    1.24167096930768
    0.31728660875262    0.31728660875262    0.31728660875262    1.24167096930768
   -0.31728660875262   -0.31728660875262    0.31728660875262    1.24167096930768
   -0.31728660875262    0.31728660875262   -0.31728660875262    1.24167096930768
   -0.31728660875262    0.31728660875262    0.31728660875262    1.24167096930768
   -0.31728660875262   -0.31728660875262   -0.31728660875262    1.24167096930768
    0.31728660875262    0.31728660875262   -0.31728660875262    1.24167096930768
    0.31728660875262   -0.31728660875262    0.31728660875262    1.24167096930768
    0.31728660875262   -0.31728660875262   -0.31728660875262    1.24167096930768
    0.31728660875262    0.31728660875262    0.31728660875262    1.24167096930768
   -0.31728660875262   -0.31728660875262    0.31728660875262    1.24167096930768
   -0.31728660875262    0.31728660875262   -0.31728660875262    1.24167096930768
   -0.31728660875262    0.31728660875262    0.31728660875262    1.24167096930768
   -0.31728660875262   -0.31728660875262   -0.31728660875262    1.24167096930768
    0.31728660875262    0.31728660875262   -0.31728660875262    1.24167096930768
    0.31728660875262   -0.31728660875262    0.31728660875262    1.24167096930768
    0.31728660875262   -0.31728660875262   -0.31728660875262    1.24167096930768
    0.31728660875262    0.31728660875262    0.31728660875262    1.24167096930768
   -0.31728660875262   -0.31728660875262    0.31728660875262    1.24167096930768
   -0.31728660875262    0.31728660875262   -0.31728660875262    1.24167096930768
   -0.31728660875262    0.31728660875262    0.31728660875262    1.24167096930768
   -0.31728660875262   -0.31728660875262   -0.31728660875262    1.24167096930768
    0.31728660875262    0.31728660875262   -0.31728660875262    1.24167096930768
    0.31728660875262   -0.31728660875262    0.31728660875262    1.24167096930768
    0.31728660875262   -0.31728660875262   -0.31728660875262    1.24167096930768
    0.31728660875262    0.31728660875262    0.31728660875262    1.24167096930768
   -0.31728660875262   -0.31728660875262    0.31728660875262    1.24167096930768
   -0.31728660875262    0.31728660875262   -0.31728660875262    1.24167096930768
   -0.31728660875262    0.31728660875262    0.31728660875262    1.24167096930768
   -0.31728660875262   -0.31728660875262   -0.31728660875262    1.24167096930768
    0.31728660875262    0.31728660875262   -0.31728660875262    1.24167096930768
    0.31728660875262   -0.31728660875262    0.31728660875262    1.24167096930768
    0.31728660875262   -0.31728660875262   -0.31728660875262    1.24167096930768
    0.31728660875262    0.31728660875262    0.31728660875262    1.24167096930768
   -0.31728660875262   -0.31728660875262    0.31728660875262    1.24167096930768
   -0.31728660875262    0.31728660875262   -0.31728660875262    1.24167096930768
   -0.31728660875262    0.31728660875262    0.31728660875262    1.24167096930768
   -0.31728660875262   -0.31728660875262   -0.31728660875262    1.24167096930768
    0.31728660875262    0.31728660875262   -0.31728660875262    1.24167096930768
    0.31728660875262   -0.31728660875262    0.31728660875262    1.24167096930768
    0.31728660875262   -0.31728660875262   -0.31728660875262    1.24167096930768
    0.31728660875262    0.31728660875262    0.31728660875262    1.24167096930768
   -0.31728660875262   -0.31728660875262    0.31728660875262    1.24167096930768
   -0.31728660875262    0.31728660875262   -0.31728660875262    1.24167096930768
   -0.31728660875262    0.31728660875262    0.31728660875262    1.24167096930768
   -0.31728660875262   -0.31728660875262   -0.31728660875262    1.24167096930768
    0.31728660875262    0.31728660875262   -0.31728660875262    1.24167096930768
    0.31728660875262   -0.31728660875262    0.31728660875262    1.24167096930768
    0.31728660875262   -0.31728660875262   -0.31728660875262    1.24167096930768
    0.31728660875262    0.31728660875262    0.31728660875262    1.24167096930768
   -0.31728660875262   -0.31728660875262    0.31728660875262    1.24167096930768
   -0.31728660875262    0.31728660875262   -0.31728660875262    1.24167096930768
   -0.31728660875262    0.31728660875262    0.31728660875262    1.24167096930768
   -0.31728660875262   -0.31728660875262   -0.31728660875262    1.24167096930768
    0.31728660875262    0.31728660875262   -0.31728660875262    1.24167096930768
    0.31728660875262   -0.31728660875262    0.31728660875262    1.24167096930768
    0.31728660875262   -0.31728660875262   -0.31728660875262    1.24167096930768
    0.31728660875262    0.31728660875262    0.31728660875262    1.24167096930768
   -0.31728660875262   -0.31728660875262    0.31728660875262    1.24167096930768
   -0.31728660875262    0.31728660875262   -0.31728660875262    1.24167096930768
   -0.31728660875262    0.31728660875262    0.31728660875262    1.24167096930768
   -0.31728660875262   -0.31728660875262   -0.31728660875262    1.24167096930768
    0.31728660875262    0.31728660875262   -0.31728660875262    1.24167096930768
    0.31728660875262   -0.31728660875262    0.31728660875262    1.24167096930768
    0.31728660875262   -0.31728660875262   -0.31728660875262    1.24167096930768
    0.31728660875262    0.31728660875262    0.31728660875262    1.24167096930768
   -0.31728660875262   -0.31728660875262    0.31728660875262    1.24167096930768
   -0.31728660875262    0.31728660875262   -0.31728660875262    1.24167096930768
   -0.31728660875262    0.31728660875262    0.31728660875262    1.24167096930768
   -0.31728660875262   -0.31728660875262   -0.31728660875262    1.24167096930768
    0.31728660875262    0.31728660875262   -0.31728660875262    1.24167096930768
    0.31728660875262   -0.31728660875262    0.31728660875262    1.24167096930768
    0.31728660875262   -0.31728660875262   -0.31728660875262    1.24167096930768
    0.31728660875262    0.31728660875262    0.31728660875262    1.24167096930768
   -0.31728660875262   -0.31728660875262    0.31728660875262    1.24167096930768
   -0.31728660875262    0.31728660875262   -0.31728660875262    1.24167096930768
   -0.31728660875262    0.31728660875262    0.31728660875262    1.24167096930768
   -0.31728660875262   -0.31728660875262   -0.31728660875262    1.24167096930768
    0.31728660875262    0.31728660875262   -0.31728660875262    1.24167096930768
    0.31728660875262   -0.31728660875262    0.31728660875262    1.24167096930768
    0.31728660875262   -0.31728660875262   -0.31728660875262    1.24167096930768
    0.31728660875262    0.31728660875262    0.31728660875262    1.24167096930768
   -0.31728660875262   -0.31728660875262    0.31728660875262    1.24167096930768
   -0.31728660875262    0.31728660875262   -0.31728660875262    1.24167096930768
   -0.31728660875262    0.31728660875262    0.31728660875262    1.24167096930768
   -0.31728660875262   -0.31728660875262   -0.31728660875262    1.24167096930768
    0.31728660875262    0.31728660875262   -0.31728660875262    1.24167096930768
    0.31728660875262   -0.31728660875262    0.31728660875262    1.24167096930768
    0.31728660875262   -0.31728660875262   -0.31728660875262    1.24167096930768
    0.31728660875262    0.31728660875262    0.31728660875262    1.24167096930768
   -0.31728660875262   -0.31728660875262    0.31728660875262    1.24167096930768
   -0.31728660875262    0.31728660875262   -0.31728660875262    1.24167096930768
   -0.31728660875262    0.31728660875262    0.31728660875262    1.24167096930768
   -0.31728660875262   -0.31728660875262   -0.31728660875262    1.24167096930768
    0.31728660875262    0.31728660875262   -0.31728660875262    1.24167096930768
    0.31728660875262   -0.31728660875262    0.31728660875262    1.24167096930768
    0.31728660875262   -0.31728660875262   -0.31728660875262    1.24167096930768
    0.31728660875262    0.31728660875262    0.31728660875262    1.24167096930768
   -0.31728660875262   -0.31728660875262    0.31728660875262    1.24167096930768
   -0.31728660875262    0.31728660875262   -0.31728660875262    1.24167096930768
   -0.31728660875262    0.31728660875262    0.31728660875262    1.24167096930768
   -0.31728660875262   -0.31728660875262   -0.31728660875262    1.24167096930768
    0.31728660875262    0.31728660875262   -0.31728660875262    1.24167096930768
    0.31728660875262   -0.31728660875262    0.31728660875262    1.24167096930768
    0.31728660875262   -0.31728660875262   -0.31728660875262    1.24167096930768
    0.31728660875262    0.31728660875262    0.31728660875262    1.24167096930768
   -0.31728660875262   -0.31728660875262    0.31728660875262    1.24167096930768
   -0.31728660875262    0.31728660875262   -0.31728660875262    1.24167096930768
   -0.31728660875262    0.31728660875262    0.31728660875262    1.24167096930768
   -0.31728660875262   -0.31728660875262   -0.31728660875262    1.24167096930768
    0.31728660875262    0.31728660875262   -0.31728660875262    1.24167096930768
    0.31728660875262   -0.31728660875262    0.31728660875262    1.24167096930768
    0.31728660875262   -0.31728660875262   -0.31728660875262    1.24167096930768
    0.31728660875262    0.31728660875262    0.31728660875262    1.24167096930768
   -0.31728660875262   -0.31728660875262    0.31728660875262    1.24167096930768
   -0.31728660875262    0.31728660875262   -0.31728660875262    1.24167096930768
   -0.31728660875262    0.31728660875262    0.31728660875262    1.24167096930768
   -0.31728660875262   -0.31728660875262   -0.31728660875262    1.24167096930768
    0.31728660875262    0.31728660875262   -0.31728660875262    1.24167096930768
    0.31728660875262   -0.31728660875262    0.31728660875262    1.24167096930768
    0.31728660875262   -0.31728660875262   -0.31728660875262    1.24167096930768
    0.31728660875262    0.31728660875262    0.31728660875262    1.24167096930768
   -0.31728660875262   -0.31728660875262    0.31728660875262    1.24167096930768
   -0.31728660875262    0.31728660875262   -0.31728660875262    1.24167096930768
   -0.31728660875262    0.31728660875262    0.31728660875262    1.24167096930768
   -0.31728660875262   -0.31728660875262   -0.31728660875262    1.24167096930768
    0.31728660875262    0.31728660875262   -0.31728660875262    1.24167096930768
    0.31728660875262   -0.31728660875262    0.31728660875262    1.24167096930768
    0.31728660875262   -0.31728660875262   -0.31728660875262    1.24167096930768
    0.31728660875262    0.31728660875262    0.31728660875262    1.24167096930768
   -0.31728660875262   -0.31728660875262    0.31728660875262    1.24167096930768
   -0.31728660875262    0.31728660875262   -0.31728660875262    1.24167096930768
   -0.31728660875262    0.31728660875262    0.31728660875262    1.24167096930768
   -0.31728660875262   -0.31728660875262   -0.31728660875262    1.24167096930768
    0.31728660875262    0.31728660875262   -0.31728660875262    1.24167096930768
    0.31728660875262   -0.31728660875262    0.31728660875262    1.24167096930768
    0.31728660875262   -0.31728660875262   -0.31728660875262    1.24167096930768
    0.31728660875262    0.31728660875262    0.31728660875262    1.24167096930768
   -0.31728660875262   -0.31728660875262    0.31728660875262    1.24167096930768
   -0.31728660875262    0.31728660875262   -0.31728660875262    1.24167096930768
   -0.31728660875262    0.31728660875262    0.31728660875262    1.24167096930768
   -0.31728660875262   -0.31728660875262   -0.31728660875262    1.24167096930768
    0.31728660875262    0.31728660875262   -0.31728660875262    1.24167096930768
    0.31728660875262   -0.31728660875262    0.31728660875262    1.24167096930768
    0.31728660875262   -0.31728660875262   -0.31728660875262    1.24167096930768
    0.31728660875262    0.31728660875262    0.31728660875262    1.24167096930768
   -0.31728660875262   -0.31728660875262    0.31728660875262    1.24167096930768
   -0.31728660875262    0.31728660875262   -0.31728660875262    1.24167096930768
   -0.31728660875262    0.31728660875262    0.31728660875262    1.24167096930768
   -0.31728660875262   -0.31728660875262   -0.31728660875262    1.24167096930768
    0.31728660875262    0.31728660875262   -0.31728660875262    1.24167096930768
    0.31728660875262   -0.31728660875262    0.31728660875262    1.24167096930768
    0.31728660875262   -0.31728660875262   -0.31728660875262    1.24167096930768
    0.31728660875262    0.31728660875262    0.31728660875262    1.24167096930768
   -0.31728660875262   -0.31728660875262    0.31728660875262    1.24167096930768
   -0.31728660875262    0.31728660875262   -0.31728660875262    1.24167096930768
   -0.31728660875262    0.31728660875262    0.31728660875262    1.24167096930768
   -0.31728660875262   -0.31728660875262   -0.31728660875262    1.24167096930768
    0.31728660875262    0.31728660875262   -0.31728660875262    1.24167096930768
    0.31728660875262   -0.31728660875262    0.31728660875262    1.24167096930768
    0.31728660875262   -0.31728660875262   -0.31728660875262    1.24167096930768
    0.31728660875262    0.31728660875262    0.31728660875262    1.24167096930768
   -0.31728660875262   -0.31728660875262    0.31728660875262    1.24167096930768
   -0.31728660875262    0.31728660875262   -0.31728660875262    1.24167096930768
   -0.31728660875262    0.31728660875262    0.31728660875262    1.24167096930768
   -0.31728660875262   -0.31728660875262   -0.31728660875262    1.24167096930768
    0.31728660875262    0.31728660875262   -0.31728660875262    1.24167096930768
    0.31728660875262   -0.31728660875262    0.31728660875262    1.24167096930768
    0.31728660875262   -0.31728660875262   -0.31728660875262    1.24167096930768
    0.31728660875262    0.31728660875262    0.31728660875262    1.24167096930768
   -0.31728660875262   -0.31728660875262    0.31728660875262    1.24167096930768
   -0.31728660875262    0.31728660875262   -0.31728660875262    1.24167096930768
   -0.31728660875262    0.31728660875262    0.31728660875262    1.24167096930768
   -0.31728660875262   -0.31728660875262   -0.31728660875262    1.24167096930768
    0.31728660875262    0.31728660875262   -0.31728660875262    1.24167096930768
    0.31728660875262   -0.31728660875262    0.31728660875262    1.24167096930768
    0.31728660875262   -0.31728660875262   -0.31728660875262    1.24167096930768
    0.31728660875262    0.31728660875262    0.31728660875262    1.24167096930768
   -0.31728660875262   -0.31728660875262    0.31728660875262    1.24167096930768
   -0.31728660875262    0.31728660875262   -0.31728660875262    1.24167096930768
   -0.31728660875262    0.31728660875262    0.31728660875262    1.24167096930768
   -0.31728660875262   -0.31728660875262   -0.31728660875262    1.24167096930768
    0.31728660875262    0.31728660875262   -0.31728660875262    1.24167096930768
    0.31728660875262   -0.31728660875262    0.31728660875262    1.24167096930768
    0.31728660875262   -0.31728660875262   -0.31728660875262    1.24167096930768
    0.31728660875262    0.31728660875262    0.31728660875262    1.24167096930768
   -0.31728660875262   -0.31728660875262    0.31728660875262    1.24167096930768
   -0.31728660875262    0.31728660875262   -0.31728660875262    1.24167096930768
   -0.31728660875262    0.31728660875262    0.31728660875262    1.24167096930768
   -0.31728660875262   -0.31728660875262   -0.31728660875262    1.24167096930768
    0.31728660875262    0.31728660875262   -0.31728660875262    1.24167096930768
    0.31728660875262   -0.31728660875262    0.31728660875262    1.24167096930768
    0.31728660875262   -0.31728660875262   -0.31728660875262    1.24167096930768
    0.31728660875262    0.31728660875262    0.31728660875262    1.24167096930768
   -0.31728660875262   -0.31728660875262    0.31728660875262    1.24167096930768
   -0.31728660875262    0.31728660875262   -0.31728660875262    1.24167096930768
   -0.31728660875262    0.31728660875262    0.31728660875262    1.24167096930768
   -0.31728660875262   -0.31728660875262   -0.31728660875262    1.24167096930768
    0.31728660875262    0.31728660875262   -0.31728660875262    1.24167096930768
    0.31728660875262   -0.31728660875262    0.31728660875262    1.24167096930768
    0.31728660875262   -0.31728660875262   -0.31728660875262    1.24167096930768
    0.31728660875262    0.31728660875262    0.31728660875262    1.24167096930768
   -0.31728660875262   -0.31728660875262    0.31728660875262    1.24167096930768
   -0.31728660875262    0.31728660875262   -0.31728660875262    1.24167096930768
   -0.31728660875262    0.31728660875262    0.31728660875262    1.24167096930768
   -0.31728660875262   -0.31728660875262   -0.31728660875262    1.24167096930768
    0.31728660875262    0.31728660875262   -0.31728660875262    1.24167096930768
    0.31728660875262   -0.31728660875262    0.31728660875262    1.24167096930768
    0.31728660875262   -0.31728660875262   -0.31728660875262    1.24167096930768
    0.31728660875262    0.31728660875262    0.31728660875262    1.24167096930768
   -0.31728660875262   -0.31728660875262    0.31728660875262    1.24167096930768
   -0.31728660875262    0.31728660875262   -0.31728660875262    1.24167096930768
   -0.31728660875262    0.31728660875262    0.31728660875262    1.24167096930768
   -0.31728660875262   -0.31728660875262   -0.31728660875262    1.24167096930768
    0.31728660875262    0.31728660875262   -0.31728660875262    1.24167096930768
    0.31728660875262   -0.31728660875262    0.31728660875262    1.24167096930768
    0.31728660875262   -0.31728660875262   -0.31728660875262    1.24167096930768
    0.31728660875262    0.31728660875262    0.31728660875262    1.24167096930768
   -0.31728660875262   -0.31728660875262    0.31728660875262    1.24167096930768
   -0.31728660875262    0.31728660875262   -0.31728660875262    1.24167096930768
   -0.31728660875262    0.31728660875262    0.31728660875262    1.24167096930768
   -0.31728660875262   -0.31728660875262   -0.31728660875262    1.24167096930768
    0.31728660875262    0.31728660875262   -0.31728660875262    1.24167096930768
    0.31728660875262   -0.31728660875262    0.31728660875262    1.24167096930768
    0.31728660875262   -0.31728660875262   -0.31728660875262    1.24167096930768
