 
             +---------------------------------------------------+
             |                                                   |
             |                   WANNIER90                       |
             |                                                   |
             +---------------------------------------------------+
             |                                                   |
             |        Welcome to the Maximally-Localized         |
             |        Generalized Wannier Functions code         |
             |            http://www.wannier.org                 |
             |                                                   |
             |                                                   |
             |  Wannier90 Developer Group:                       |
             |    Giovanni Pizzi    (Paul Scherrer Institute)    |
             |    Valerio Vitale    (University of Trieste)      |
             |    David Vanderbilt  (Rutgers University)         |
             |    Nicola Marzari    (EPFL)                       |
             |    Ivo Souza         (Universidad del Pais Vasco) |
             |    Arash A. Mostofi  (Imperial College London)    |
             |    Jonathan R. Yates (University of Oxford)       |
             |                                                   |
             |  For the full list of Wannier90 3.x authors,      |
             |  please check the code documentation and the      |
             |  README on the GitHub page of the code            |
             |                                                   |
             |                                                   |
             |  Please cite                                      |
             |                                                   |
             |  [ref] "Wannier90 as a community code:            |
             |        new features and applications",            |
             |        G. Pizzi et al., J. Phys. Cond. Matt. 32,  |
             |        165902 (2020).                             |
             |        http://doi.org/10.1088/1361-648X/ab51ff    |
             |                                                   |
             |  in any publications arising from the use of      |
             |  this code. For the method please cite            |
             |                                                   |
             |  [ref] "Maximally Localized Generalised Wannier   |
             |         Functions for Composite Energy Bands"     |
             |         N. Marzari and D. Vanderbilt              |
             |         Phys. Rev. B 56 12847 (1997)              |
             |                                                   |
             |  [ref] "Maximally Localized Wannier Functions     |
             |         for Entangled Energy Bands"               |
             |         I. Souza, N. Marzari and D. Vanderbilt    |
             |         Phys. Rev. B 65 035109 (2001)             |
             |                                                   |
             |                                                   |
             | Copyright (c) 1996-2020                           |
             |        The Wannier90 Developer Group and          |
             |        individual contributors                    |
             |                                                   |
             |      Release: 3.1.0        5th March    2020      |
             |                                                   |
             | This program is free software; you can            |
             | redistribute it and/or modify it under the terms  |
             | of the GNU General Public License as published by |
             | the Free Software Foundation; either version 2 of |
             | the License, or (at your option) any later version|
             |                                                   |
             | This program is distributed in the hope that it   |
             | will be useful, but WITHOUT ANY WARRANTY; without |
             | even the implied warranty of MERCHANTABILITY or   |
             | FITNESS FOR A PARTICULAR PURPOSE. See the GNU     |
             | General Public License for more details.          |
             |                                                   |
             | You should have received a copy of the GNU General|
             | Public License along with this program; if not,   |
             | write to the Free Software Foundation, Inc.,      |
             | 675 Mass Ave, Cambridge, MA 02139, USA.           |
             |                                                   |
             +---------------------------------------------------+
             |    Execution started on  2Jul2024 at 12:24:55     |
             +---------------------------------------------------+
 
 ******************************************************************************
 * -> Using CODATA 2006 constant values                                       *
 *    (http://physics.nist.gov/cuu/Constants/index.html)                      *
 * -> Using Bohr value from CODATA                                            *
 ******************************************************************************
 

 Running in serial (with parallel executable)
 
                                    ------
                                    SYSTEM
                                    ------
 
                              Lattice Vectors (Ang)
                    a_1     3.998339   0.000000   0.000000
                    a_2     0.000000   3.998339   0.000000
                    a_3     0.000000   0.000000   4.064361
 
                   Unit Cell Volume:      64.97578  (Ang^3)
 
                        Reciprocal-Space Vectors (Ang^-1)
                    b_1     1.571449   0.000000   0.000000
                    b_2     0.000000   1.571449   0.000000
                    b_3     0.000000   0.000000   1.545922
  
 *----------------------------------------------------------------------------*
 |   Site       Fractional Coordinate          Cartesian Coordinate (Ang)     |
 +----------------------------------------------------------------------------+
 | k    1   0.50000   0.50000   0.52300   |    1.99917   1.99917   2.12566    |
 | nb   1   0.00000   0.00000   0.00000   |    0.00000   0.00000   0.00000    |
 | o    1   0.00000   0.50000   0.04200   |    0.00000   1.99917   0.17070    |
 | o    2   0.00000   0.00000   0.54000   |    0.00000   0.00000   2.19475    |
 | o    3   0.50000   0.00000   0.04200   |    1.99917   0.00000   0.17070    |
 *----------------------------------------------------------------------------*
                                ------------
                                K-POINT GRID
                                ------------
  
             Grid size =  3 x  3 x  3      Total points =   27
  
  
 *---------------------------------- MAIN ------------------------------------*
 |  Number of Wannier Functions               :                15             |
 |  Number of Objective Wannier Functions     :                15             |
 |  Number of input Bloch states              :                15             |
 |  Output verbosity (1=low, 5=high)          :                 1             |
 |  Timing Level (1=low, 5=high)              :                 1             |
 |  Optimisation (0=memory, 3=speed)          :                 3             |
 |  Length Unit                               :               Ang             |
 |  Post-processing setup (write *.nnkp)      :                 F             |
 |  Using Gamma-only branch of algorithms     :                 F             |
 *----------------------------------------------------------------------------*
 *------------------------------- WANNIERISE ---------------------------------*
 |  Total number of iterations                :               100             |
 |  Number of CG steps before reset           :                 5             |
 |  Trial step length for line search         :             2.000             |
 |  Convergence tolerence                     :         0.100E-09             |
 |  Convergence window                        :                 5             |
 |  Iterations between writing output         :                 1             |
 |  Iterations between backing up to disk     :               100             |
 |  Write r^2_nm to file                      :                 F             |
 |  Write xyz WF centres to file              :                 F             |
 |  Write on-site energies <0n|H|0n> to file  :                 F             |
 |  Use guiding centre to control phases      :                 T             |
 |  Use phases for initial projections        :                 F             |
 |  Iterations before starting guiding centres:                 0             |
 |  Iterations between using guiding centres  :                 1             |
 *----------------------------------------------------------------------------*

 *---------------------------------- K-MESH ----------------------------------*
 +----------------------------------------------------------------------------+
 |                    Distance to Nearest-Neighbour Shells                    |
 |                    ------------------------------------                    |
 |          Shell             Distance (Ang^-1)          Multiplicity         |
 |          -----             -----------------          ------------         |
 |             1                   0.515307                      2            |
 |             2                   0.523816                      4            |
 |             3                   0.734796                      8            |
 |             4                   0.740788                      4            |
 |             5                   0.902391                      8            |
 |             6                   1.030615                      2            |
 |             7                   1.047633                      4            |
 |             8                   1.156093                      8            |
 |             9                   1.167508                      8            |
 |            10                   1.171289                      8            |
 |            11                   1.269226                      8            |
 |            12                   1.279632                     16            |
 |            13                   1.469592                      8            |
 |            14                   1.481576                      4            |
 |            15                   1.545922                      2            |
 |            16                   1.560155                     16            |
 |            17                   1.568633                      8            |
 |            18                   1.571449                      4            |
 |            19                   1.632256                      8            |
 |            20                   1.653782                      8            |
 |            21                   1.656453                      8            |
 |            22                   1.714247                      8            |
 |            23                   1.734756                     16            |
 |            24                   1.804781                      8            |
 |            25                   1.867461                      8            |
 |            26                   1.879260                      8            |
 |            27                   1.888647                      8            |
 |            28                   1.939534                     16            |
 |            29                   1.950898                     16            |
 |            30                   1.957684                     16            |
 |            31                   2.061229                      2            |
 |            32                   2.095265                      4            |
 |            33                   2.126746                      8            |
 |            34                   2.141248                      8            |
 |            35                   2.151546                     16            |
 |            36                   2.157702                      8            |
 +----------------------------------------------------------------------------+
 | The b-vectors are chosen automatically                                     |
 | The following shells and their multiples are used:   1,  2                 |
 +----------------------------------------------------------------------------+
 |                        Shell   # Nearest-Neighbours                        |
 |                        -----   --------------------                        |
 |                          1               2                                 |
 |                          2               4                                 |
 |                      2 x 1               2                                 |
 |                      2 x 2               4                                 |
 +----------------------------------------------------------------------------+
 | Completeness relation is fully satisfied [Eq. (B1), PRB 56, 12847 (1997)]  |
 +----------------------------------------------------------------------------+
 |                  b_k Vectors (Ang^-1) and Weights (Ang^2)                  |
 |                  ----------------------------------------                  |
 |            No.         b_k(x)      b_k(y)      b_k(z)        w_b           |
 |            ---        --------------------------------     --------        |
 |             1         0.000000    0.000000    0.515307     2.510592        |
 |             2         0.000000    0.000000   -0.515307     2.510592        |
 |             3         0.000000    0.523816    0.000000     2.429689        |
 |             4         0.523816    0.000000    0.000000     2.429689        |
 |             5         0.000000   -0.523816    0.000000     2.429689        |
 |             6        -0.523816    0.000000    0.000000     2.429689        |
 |             7         0.000000    0.000000    1.030615    -0.156912        |
 |             8         0.000000    0.000000   -1.030615    -0.156912        |
 |             9         0.000000    1.047633    0.000000    -0.151856        |
 |            10         1.047633    0.000000    0.000000    -0.151856        |
 |            11         0.000000   -1.047633    0.000000    -0.151856        |
 |            12        -1.047633    0.000000    0.000000    -0.151856        |
 +----------------------------------------------------------------------------+
 |                           b_k Directions (Ang^-1)                          |
 |                           -----------------------                          |
 |            No.           x           y           z                         |
 |            ---        --------------------------------                     |
 |             1         0.000000    0.000000    0.515307                     |
 |             2         0.000000    0.523816    0.000000                     |
 |             3         0.523816    0.000000    0.000000                     |
 |             4         0.000000    0.000000    1.030615                     |
 |             5         0.000000    1.047633    0.000000                     |
 |             6         1.047633    0.000000    0.000000                     |
 +----------------------------------------------------------------------------+
  
 Starting a new Wannier90 calculation ...


 Reading overlaps from knbo3.mmn    :  Created on 21May2024 at 11:17:26

 Reading projections from knbo3.amn :  Created on 21May2024 at 11:16:38
 
 *------------------------------- WANNIERISE ---------------------------------*
 +--------------------------------------------------------------------+<-- CONV
 | Iter  Delta Spread     RMS Gradient      Spread (Ang^2)      Time  |<-- CONV
 +--------------------------------------------------------------------+<-- CONV
 
 ------------------------------------------------------------------------------
 Initial State
  WF centre and spread    1  (  1.999169,  1.999169,  2.127103 )     0.68730572
  WF centre and spread    2  (  1.999169,  1.999169,  2.128198 )     0.68745003
  WF centre and spread    3  (  1.999169,  1.999169,  2.128198 )     0.68745003
  WF centre and spread    4  (  0.000000,  1.999169,  0.164561 )     0.64095996
  WF centre and spread    5  (  0.000000,  1.999169,  0.147379 )     1.17180604
  WF centre and spread    6  ( -0.000000,  1.999169,  0.148757 )     1.18726917
  WF centre and spread    7  ( -0.000000,  1.999169,  0.149201 )     1.28011700
  WF centre and spread    8  ( -0.000000, -0.000000,  2.230003 )     0.65074459
  WF centre and spread    9  ( -0.000000,  0.000000,  2.292909 )     1.21946596
  WF centre and spread   10  (  0.000000,  0.000000,  2.354030 )     1.15338912
  WF centre and spread   11  (  0.000000,  0.000000,  2.354030 )     1.15338912
  WF centre and spread   12  (  1.999169,  0.000000,  0.164561 )     0.64095996
  WF centre and spread   13  (  1.999169, -0.000000,  0.147379 )     1.17180604
  WF centre and spread   14  (  1.999169, -0.000000,  0.149201 )     1.28011700
  WF centre and spread   15  (  1.999169,  0.000000,  0.148757 )     1.18726917
  Sum of centres and spreads ( 13.994186, 13.994186, 16.834268 )    14.79949890
 
      0     0.148E+02     0.0000000000       14.7994988992       0.00  <-- CONV
        O_D=      0.0687502 O_OD=      2.9884328 O_TOT=     14.7994989 <-- SPRD
 ------------------------------------------------------------------------------
 Cycle:      1
  WF centre and spread    1  (  1.999169,  1.999169,  2.127034 )     0.68752813
  WF centre and spread    2  (  1.999169,  1.999169,  2.128159 )     0.68766601
  WF centre and spread    3  (  1.999169,  1.999169,  2.128160 )     0.68766540
  WF centre and spread    4  (  0.000000,  1.999169,  0.164610 )     0.64054878
  WF centre and spread    5  (  0.000000,  1.999169,  0.147245 )     1.17087215
  WF centre and spread    6  ( -0.000000,  1.999169,  0.148792 )     1.18663563
  WF centre and spread    7  ( -0.000000,  1.999169,  0.149133 )     1.27951063
  WF centre and spread    8  ( -0.000000, -0.000000,  2.229881 )     0.65025530
  WF centre and spread    9  ( -0.000000,  0.000000,  2.293440 )     1.21877686
  WF centre and spread   10  (  0.000000,  0.000000,  2.354424 )     1.15212544
  WF centre and spread   11  (  0.000000,  0.000000,  2.354390 )     1.15213292
  WF centre and spread   12  (  1.999169,  0.000000,  0.164607 )     0.64054758
  WF centre and spread   13  (  1.999169, -0.000000,  0.147214 )     1.17084728
  WF centre and spread   14  (  1.999169, -0.000000,  0.149097 )     1.27948398
  WF centre and spread   15  (  1.999169,  0.000000,  0.148781 )     1.18659899
  Sum of centres and spreads ( 13.994186, 13.994186, 16.834967 )    14.79119508
 
      1    -0.830E-02     0.3052703193       14.7911950759       0.04  <-- CONV
        O_D=      0.0673016 O_OD=      2.9815776 O_TOT=     14.7911951 <-- SPRD
 Delta: O_D= -0.1448644E-02 O_OD= -0.6855179E-02 O_TOT= -0.8303823E-02 <-- DLTA
 ------------------------------------------------------------------------------
 Cycle:      2
  WF centre and spread    1  (  1.999169,  1.999169,  2.126949 )     0.68791291
  WF centre and spread    2  (  1.999169,  1.999169,  2.128112 )     0.68804570
  WF centre and spread    3  (  1.999169,  1.999169,  2.128115 )     0.68804338
  WF centre and spread    4  (  0.000000,  1.999169,  0.164681 )     0.64005333
  WF centre and spread    5  (  0.000000,  1.999169,  0.147045 )     1.16969840
  WF centre and spread    6  ( -0.000000,  1.999169,  0.148833 )     1.18584033
  WF centre and spread    7  ( -0.000000,  1.999169,  0.149042 )     1.27879977
  WF centre and spread    8  ( -0.000000, -0.000000,  2.229696 )     0.64966491
  WF centre and spread    9  ( -0.000000,  0.000000,  2.294197 )     1.21797866
  WF centre and spread   10  (  0.000000,  0.000000,  2.354964 )     1.15063619
  WF centre and spread   11  (  0.000000,  0.000000,  2.354884 )     1.15065091
  WF centre and spread   12  (  1.999169,  0.000000,  0.164673 )     0.64005016
  WF centre and spread   13  (  1.999169, -0.000000,  0.146971 )     1.16964362
  WF centre and spread   14  (  1.999169, -0.000000,  0.148956 )     1.27874443
  WF centre and spread   15  (  1.999169,  0.000000,  0.148809 )     1.18574992
  Sum of centres and spreads ( 13.994186, 13.994186, 16.835924 )    14.78151261
 
      2    -0.968E-02     0.2740696451       14.7815126067       0.05  <-- CONV
        O_D=      0.0656788 O_OD=      2.9735179 O_TOT=     14.7815126 <-- SPRD
 Delta: O_D= -0.1622769E-02 O_OD= -0.8059700E-02 O_TOT= -0.9682469E-02 <-- DLTA
 ------------------------------------------------------------------------------
 Cycle:      3
  WF centre and spread    1  (  1.999169,  1.999169,  2.126879 )     0.68836411
  WF centre and spread    2  (  1.999169,  1.999169,  2.128075 )     0.68849641
  WF centre and spread    3  (  1.999169,  1.999169,  2.128080 )     0.68849183
  WF centre and spread    4  (  0.000000,  1.999169,  0.164751 )     0.63965811
  WF centre and spread    5  (  0.000000,  1.999169,  0.146839 )     1.16870498
  WF centre and spread    6  ( -0.000000,  1.999169,  0.148864 )     1.18516978
  WF centre and spread    7  ( -0.000000,  1.999169,  0.148959 )     1.27826153
  WF centre and spread    8  ( -0.000000, -0.000000,  2.229499 )     0.64919268
  WF centre and spread    9  ( -0.000000,  0.000000,  2.294939 )     1.21738713
  WF centre and spread   10  (  0.000000,  0.000000,  2.355465 )     1.14948629
  WF centre and spread   11  (  0.000000,  0.000000,  2.355342 )     1.14950573
  WF centre and spread   12  (  1.999169,  0.000000,  0.164739 )     0.63965257
  WF centre and spread   13  (  1.999169, -0.000000,  0.146723 )     1.16862889
  WF centre and spread   14  (  1.999169, -0.000000,  0.148828 )     1.27818760
  WF centre and spread   15  (  1.999169,  0.000000,  0.148828 )     1.18502466
  Sum of centres and spreads ( 13.994186, 13.994186, 16.836808 )    14.77421230
 
      3    -0.730E-02     0.2341551395       14.7742123045       0.05  <-- CONV
        O_D=      0.0645284 O_OD=      2.9673681 O_TOT=     14.7742123 <-- SPRD
 Delta: O_D= -0.1150443E-02 O_OD= -0.6149859E-02 O_TOT= -0.7300302E-02 <-- DLTA
 ------------------------------------------------------------------------------
 Cycle:      4
  WF centre and spread    1  (  1.999169,  1.999169,  2.126827 )     0.68882826
  WF centre and spread    2  (  1.999169,  1.999169,  2.128051 )     0.68896381
  WF centre and spread    3  (  1.999169,  1.999169,  2.128056 )     0.68895710
  WF centre and spread    4  (  0.000000,  1.999169,  0.164815 )     0.63936610
  WF centre and spread    5  (  0.000000,  1.999169,  0.146645 )     1.16792274
  WF centre and spread    6  ( -0.000000,  1.999169,  0.148885 )     1.18464521
  WF centre and spread    7  ( -0.000000,  1.999169,  0.148889 )     1.27789359
  WF centre and spread    8  ( -0.000000, -0.000000,  2.229305 )     0.64884212
  WF centre and spread    9  ( -0.000000,  0.000000,  2.295607 )     1.21699656
  WF centre and spread   10  (  0.000000,  0.000000,  2.355889 )     1.14866636
  WF centre and spread   11  (  0.000000,  0.000000,  2.355729 )     1.14868953
  WF centre and spread   12  (  1.999169,  0.000000,  0.164800 )     0.63935791
  WF centre and spread   13  (  1.999169, -0.000000,  0.146492 )     1.16783596
  WF centre and spread   14  (  1.999169, -0.000000,  0.148721 )     1.27780982
  WF centre and spread   15  (  1.999169,  0.000000,  0.148838 )     1.18444912
  Sum of centres and spreads ( 13.994186, 13.994186, 16.837548 )    14.76922420
 
      4    -0.499E-02     0.2007270419       14.7692242010       0.06  <-- CONV
        O_D=      0.0637985 O_OD=      2.9631098 O_TOT=     14.7692242 <-- SPRD
 Delta: O_D= -0.7298890E-03 O_OD= -0.4258214E-02 O_TOT= -0.4988103E-02 <-- DLTA
 ------------------------------------------------------------------------------
 Cycle:      5
  WF centre and spread    1  (  1.999169,  1.999169,  2.126790 )     0.68928690
  WF centre and spread    2  (  1.999169,  1.999169,  2.128034 )     0.68942837
  WF centre and spread    3  (  1.999169,  1.999169,  2.128041 )     0.68941997
  WF centre and spread    4  (  0.000000,  1.999169,  0.164874 )     0.63914556
  WF centre and spread    5  (  0.000000,  1.999169,  0.146464 )     1.16729541
  WF centre and spread    6  ( -0.000000,  1.999169,  0.148898 )     1.18422801
  WF centre and spread    7  ( -0.000000,  1.999169,  0.148832 )     1.27764226
  WF centre and spread    8  ( -0.000000, -0.000000,  2.229115 )     0.64857538
  WF centre and spread    9  ( -0.000000,  0.000000,  2.296207 )     1.21674391
  WF centre and spread   10  (  0.000000,  0.000000,  2.356244 )     1.14806646
  WF centre and spread   11  (  0.000000,  0.000000,  2.356052 )     1.14809372
  WF centre and spread   12  (  1.999169,  0.000000,  0.164857 )     0.63913449
  WF centre and spread   13  (  1.999169, -0.000000,  0.146279 )     1.16720707
  WF centre and spread   14  (  1.999169, -0.000000,  0.148631 )     1.27755428
  WF centre and spread   15  (  1.999169,  0.000000,  0.148843 )     1.18398490
  Sum of centres and spreads ( 13.994186, 13.994186, 16.838161 )    14.76580671
 
      5    -0.342E-02     0.1755209131       14.7658067069       0.06  <-- CONV
        O_D=      0.0633359 O_OD=      2.9601549 O_TOT=     14.7658067 <-- SPRD
 Delta: O_D= -0.4625340E-03 O_OD= -0.2954960E-02 O_TOT= -0.3417494E-02 <-- DLTA
 ------------------------------------------------------------------------------
 Cycle:      6
  WF centre and spread    1  (  1.999169,  1.999169,  2.126762 )     0.68973441
  WF centre and spread    2  (  1.999169,  1.999169,  2.128023 )     0.68988383
  WF centre and spread    3  (  1.999169,  1.999169,  2.128031 )     0.68987428
  WF centre and spread    4  (  0.000000,  1.999169,  0.164930 )     0.63897246
  WF centre and spread    5  (  0.000000,  1.999169,  0.146295 )     1.16677610
  WF centre and spread    6  ( -0.000000,  1.999169,  0.148906 )     1.18388580
  WF centre and spread    7  ( -0.000000,  1.999169,  0.148784 )     1.27746723
  WF centre and spread    8  ( -0.000000, -0.000000,  2.228927 )     0.64836379
  WF centre and spread    9  ( -0.000000,  0.000000,  2.296753 )     1.21658199
  WF centre and spread   10  (  0.000000,  0.000000,  2.356546 )     1.14760651
  WF centre and spread   11  (  0.000000,  0.000000,  2.356324 )     1.14763883
  WF centre and spread   12  (  1.999169,  0.000000,  0.164910 )     0.63895834
  WF centre and spread   13  (  1.999169, -0.000000,  0.146082 )     1.16669357
  WF centre and spread   14  (  1.999169, -0.000000,  0.148556 )     1.27737848
  WF centre and spread   15  (  1.999169,  0.000000,  0.148844 )     1.18359907
  Sum of centres and spreads ( 13.994186, 13.994186, 16.838672 )    14.76341470
 
      6    -0.239E-02     0.1564677461       14.7634147043       0.07  <-- CONV
        O_D=      0.0630354 O_OD=      2.9580635 O_TOT=     14.7634147 <-- SPRD
 Delta: O_D= -0.3005728E-03 O_OD= -0.2091430E-02 O_TOT= -0.2392003E-02 <-- DLTA
 ------------------------------------------------------------------------------
 Cycle:      7
  WF centre and spread    1  (  1.999169,  1.999169,  2.126757 )     0.68983688
  WF centre and spread    2  (  1.999169,  1.999169,  2.128021 )     0.68998967
  WF centre and spread    3  (  1.999169,  1.999169,  2.128029 )     0.68998029
  WF centre and spread    4  (  0.000000,  1.999169,  0.164945 )     0.63893721
  WF centre and spread    5  (  0.000000,  1.999169,  0.146253 )     1.16665394
  WF centre and spread    6  ( -0.000000,  1.999169,  0.148908 )     1.18381577
  WF centre and spread    7  ( -0.000000,  1.999169,  0.148776 )     1.27744582
  WF centre and spread    8  ( -0.000000, -0.000000,  2.228868 )     0.64831867
  WF centre and spread    9  ( -0.000000,  0.000000,  2.296879 )     1.21655441
  WF centre and spread   10  (  0.000000,  0.000000,  2.356596 )     1.14751195
  WF centre and spread   11  (  0.000000,  0.000000,  2.356369 )     1.14754925
  WF centre and spread   12  (  1.999169,  0.000000,  0.164925 )     0.63892200
  WF centre and spread   13  (  1.999169, -0.000000,  0.146034 )     1.16657720
  WF centre and spread   14  (  1.999169, -0.000000,  0.148543 )     1.27735755
  WF centre and spread   15  (  1.999169,  0.000000,  0.148844 )     1.18351830
  Sum of centres and spreads ( 13.994186, 13.994186, 16.838748 )    14.76296891
 
      7    -0.446E-03     0.1415649821       14.7629689140       0.07  <-- CONV
        O_D=      0.0629871 O_OD=      2.9576660 O_TOT=     14.7629689 <-- SPRD
 Delta: O_D= -0.4828360E-04 O_OD= -0.3975067E-03 O_TOT= -0.4457903E-03 <-- DLTA
 ------------------------------------------------------------------------------
 Cycle:      8
  WF centre and spread    1  (  1.999169,  1.999169,  2.126748 )     0.69002972
  WF centre and spread    2  (  1.999169,  1.999169,  2.128018 )     0.69018914
  WF centre and spread    3  (  1.999169,  1.999169,  2.128026 )     0.69018010
  WF centre and spread    4  (  0.000000,  1.999169,  0.164973 )     0.63887414
  WF centre and spread    5  (  0.000000,  1.999169,  0.146176 )     1.16643388
  WF centre and spread    6  ( -0.000000,  1.999169,  0.148910 )     1.18368911
  WF centre and spread    7  ( -0.000000,  1.999169,  0.148761 )     1.27740853
  WF centre and spread    8  ( -0.000000, -0.000000,  2.228760 )     0.64823746
  WF centre and spread    9  ( -0.000000,  0.000000,  2.297114 )     1.21650840
  WF centre and spread   10  (  0.000000,  0.000000,  2.356690 )     1.14734221
  WF centre and spread   11  (  0.000000,  0.000000,  2.356451 )     1.14738862
  WF centre and spread   12  (  1.999169,  0.000000,  0.164952 )     0.63885690
  WF centre and spread   13  (  1.999169, -0.000000,  0.145945 )     1.16636843
  WF centre and spread   14  (  1.999169, -0.000000,  0.148519 )     1.27732130
  WF centre and spread   15  (  1.999169,  0.000000,  0.148843 )     1.18337186
  Sum of centres and spreads ( 13.994186, 13.994186, 16.838886 )    14.76219979
 
      8    -0.769E-03     0.1386048950       14.7621997851       0.08  <-- CONV
        O_D=      0.0629037 O_OD=      2.9569802 O_TOT=     14.7621998 <-- SPRD
 Delta: O_D= -0.8341548E-04 O_OD= -0.6857134E-03 O_TOT= -0.7691289E-03 <-- DLTA
 ------------------------------------------------------------------------------
 Cycle:      9
  WF centre and spread    1  (  1.999169,  1.999169,  2.126737 )     0.69029092
  WF centre and spread    2  (  1.999169,  1.999169,  2.128013 )     0.69045997
  WF centre and spread    3  (  1.999169,  1.999169,  2.128023 )     0.69045136
  WF centre and spread    4  (  0.000000,  1.999169,  0.165011 )     0.63879498
  WF centre and spread    5  (  0.000000,  1.999169,  0.146074 )     1.16615472
  WF centre and spread    6  ( -0.000000,  1.999169,  0.148911 )     1.18352746
  WF centre and spread    7  ( -0.000000,  1.999169,  0.148742 )     1.27736377
  WF centre and spread    8  ( -0.000000, -0.000000,  2.228613 )     0.64813450
  WF centre and spread    9  ( -0.000000,  0.000000,  2.297425 )     1.21645731
  WF centre and spread   10  (  0.000000,  0.000000,  2.356812 )     1.14712802
  WF centre and spread   11  (  0.000000,  0.000000,  2.356558 )     1.14718631
  WF centre and spread   12  (  1.999169,  0.000000,  0.164989 )     0.63877503
  WF centre and spread   13  (  1.999169, -0.000000,  0.145829 )     1.16610534
  WF centre and spread   14  (  1.999169, -0.000000,  0.148487 )     1.27727831
  WF centre and spread   15  (  1.999169,  0.000000,  0.148842 )     1.18318424
  Sum of centres and spreads ( 13.994186, 13.994186, 16.839067 )    14.76129222
 
      9    -0.908E-03     0.1332146724       14.7612922215       0.09  <-- CONV
        O_D=      0.0628049 O_OD=      2.9561714 O_TOT=     14.7612922 <-- SPRD
 Delta: O_D= -0.9876787E-04 O_OD= -0.8087957E-03 O_TOT= -0.9075636E-03 <-- DLTA
 ------------------------------------------------------------------------------
 Cycle:     10
  WF centre and spread    1  (  1.999169,  1.999169,  2.126726 )     0.69059590
  WF centre and spread    2  (  1.999169,  1.999169,  2.128009 )     0.69077717
  WF centre and spread    3  (  1.999169,  1.999169,  2.128020 )     0.69076899
  WF centre and spread    4  (  0.000000,  1.999169,  0.165054 )     0.63871080
  WF centre and spread    5  (  0.000000,  1.999169,  0.145960 )     1.16585356
  WF centre and spread    6  ( -0.000000,  1.999169,  0.148912 )     1.18335173
  WF centre and spread    7  ( -0.000000,  1.999169,  0.148720 )     1.27731909
  WF centre and spread    8  ( -0.000000, -0.000000,  2.228443 )     0.64802345
  WF centre and spread    9  ( -0.000000,  0.000000,  2.297780 )     1.21641222
  WF centre and spread   10  (  0.000000,  0.000000,  2.356948 )     1.14689847
  WF centre and spread   11  (  0.000000,  0.000000,  2.356677 )     1.14697010
  WF centre and spread   12  (  1.999169,  0.000000,  0.165031 )     0.63868774
  WF centre and spread   13  (  1.999169, -0.000000,  0.145697 )     1.16582401
  WF centre and spread   14  (  1.999169, -0.000000,  0.148452 )     1.27723613
  WF centre and spread   15  (  1.999169,  0.000000,  0.148839 )     1.18297931
  Sum of centres and spreads ( 13.994186, 13.994186, 16.839268 )    14.76040867
 
     10    -0.884E-03     0.1262691940       14.7604086730       0.09  <-- CONV
        O_D=      0.0627080 O_OD=      2.9553848 O_TOT=     14.7604087 <-- SPRD
 Delta: O_D= -0.9688579E-04 O_OD= -0.7866628E-03 O_TOT= -0.8835485E-03 <-- DLTA
 ------------------------------------------------------------------------------
 Cycle:     11
  WF centre and spread    1  (  1.999169,  1.999169,  2.126717 )     0.69092332
  WF centre and spread    2  (  1.999169,  1.999169,  2.128005 )     0.69111899
  WF centre and spread    3  (  1.999169,  1.999169,  2.128018 )     0.69111115
  WF centre and spread    4  (  0.000000,  1.999169,  0.165099 )     0.63862926
  WF centre and spread    5  (  0.000000,  1.999169,  0.145841 )     1.16555665
  WF centre and spread    6  ( -0.000000,  1.999169,  0.148912 )     1.18317705
  WF centre and spread    7  ( -0.000000,  1.999169,  0.148698 )     1.27727923
  WF centre and spread    8  ( -0.000000, -0.000000,  2.228261 )     0.64791390
  WF centre and spread    9  ( -0.000000,  0.000000,  2.298151 )     1.21637906
  WF centre and spread   10  (  0.000000,  0.000000,  2.357088 )     1.14667377
  WF centre and spread   11  (  0.000000,  0.000000,  2.356799 )     1.14675926
  WF centre and spread   12  (  1.999169,  0.000000,  0.165076 )     0.63860290
  WF centre and spread   13  (  1.999169, -0.000000,  0.145559 )     1.16554964
  WF centre and spread   14  (  1.999169, -0.000000,  0.148416 )     1.27719946
  WF centre and spread   15  (  1.999169,  0.000000,  0.148834 )     1.18277446
  Sum of centres and spreads ( 13.994186, 13.994186, 16.839474 )    14.75964810
 
     11    -0.761E-03     0.1186433148       14.7596481046       0.10  <-- CONV
        O_D=      0.0626233 O_OD=      2.9547089 O_TOT=     14.7596481 <-- SPRD
 Delta: O_D= -0.8467155E-04 O_OD= -0.6758969E-03 O_TOT= -0.7605684E-03 <-- DLTA
 ------------------------------------------------------------------------------
 Cycle:     12
  WF centre and spread    1  (  1.999169,  1.999169,  2.126708 )     0.69125753
  WF centre and spread    2  (  1.999169,  1.999169,  2.128001 )     0.69146936
  WF centre and spread    3  (  1.999169,  1.999169,  2.128016 )     0.69146167
  WF centre and spread    4  (  0.000000,  1.999169,  0.165145 )     0.63855446
  WF centre and spread    5  (  0.000000,  1.999169,  0.145723 )     1.16527860
  WF centre and spread    6  ( -0.000000,  1.999169,  0.148910 )     1.18301205
  WF centre and spread    7  ( -0.000000,  1.999169,  0.148677 )     1.27724626
  WF centre and spread    8  ( -0.000000, -0.000000,  2.228075 )     0.64781109
  WF centre and spread    9  ( -0.000000,  0.000000,  2.298522 )     1.21635930
  WF centre and spread   10  (  0.000000,  0.000000,  2.357223 )     1.14646485
  WF centre and spread   11  (  0.000000,  0.000000,  2.356918 )     1.14656416
  WF centre and spread   12  (  1.999169,  0.000000,  0.165121 )     0.63852475
  WF centre and spread   13  (  1.999169, -0.000000,  0.145422 )     1.16529585
  WF centre and spread   14  (  1.999169, -0.000000,  0.148382 )     1.27717022
  WF centre and spread   15  (  1.999169,  0.000000,  0.148829 )     1.18257983
  Sum of centres and spreads ( 13.994186, 13.994186, 16.839673 )    14.75904997
 
     12    -0.598E-03     0.1109961874       14.7590499743       0.10  <-- CONV
        O_D=      0.0625548 O_OD=      2.9541793 O_TOT=     14.7590500 <-- SPRD
 Delta: O_D= -0.6850647E-04 O_OD= -0.5296238E-03 O_TOT= -0.5981303E-03 <-- DLTA
 ------------------------------------------------------------------------------
 Cycle:     13
  WF centre and spread    1  (  1.999169,  1.999169,  2.126706 )     0.69131718
  WF centre and spread    2  (  1.999169,  1.999169,  2.128001 )     0.69153302
  WF centre and spread    3  (  1.999169,  1.999169,  2.128016 )     0.69152512
  WF centre and spread    4  (  0.000000,  1.999169,  0.165155 )     0.63854243
  WF centre and spread    5  (  0.000000,  1.999169,  0.145702 )     1.16522956
  WF centre and spread    6  ( -0.000000,  1.999169,  0.148910 )     1.18298500
  WF centre and spread    7  ( -0.000000,  1.999169,  0.148674 )     1.27724217
  WF centre and spread    8  ( -0.000000, -0.000000,  2.228034 )     0.64779316
  WF centre and spread    9  ( -0.000000,  0.000000,  2.298593 )     1.21635778
  WF centre and spread   10  (  0.000000,  0.000000,  2.357245 )     1.14642982
  WF centre and spread   11  (  0.000000,  0.000000,  2.356937 )     1.14653257
  WF centre and spread   12  (  1.999169,  0.000000,  0.165130 )     0.63851196
  WF centre and spread   13  (  1.999169, -0.000000,  0.145398 )     1.16525220
  WF centre and spread   14  (  1.999169, -0.000000,  0.148376 )     1.27716694
  WF centre and spread   15  (  1.999169,  0.000000,  0.148828 )     1.18254744
  Sum of centres and spreads ( 13.994186, 13.994186, 16.839704 )    14.75896634
 
     13    -0.836E-04     0.1037298878       14.7589663445       0.11  <-- CONV
        O_D=      0.0625468 O_OD=      2.9541037 O_TOT=     14.7589663 <-- SPRD
 Delta: O_D= -0.8050954E-05 O_OD= -0.7557881E-04 O_TOT= -0.8362977E-04 <-- DLTA
 ------------------------------------------------------------------------------
 Cycle:     14
  WF centre and spread    1  (  1.999169,  1.999169,  2.126703 )     0.69143200
  WF centre and spread    2  (  1.999169,  1.999169,  2.127999 )     0.69165570
  WF centre and spread    3  (  1.999169,  1.999169,  2.128015 )     0.69164734
  WF centre and spread    4  (  0.000000,  1.999169,  0.165173 )     0.63851989
  WF centre and spread    5  (  0.000000,  1.999169,  0.145662 )     1.16513724
  WF centre and spread    6  ( -0.000000,  1.999169,  0.148909 )     1.18293386
  WF centre and spread    7  ( -0.000000,  1.999169,  0.148667 )     1.27723478
  WF centre and spread    8  ( -0.000000, -0.000000,  2.227955 )     0.64775932
  WF centre and spread    9  ( -0.000000,  0.000000,  2.298727 )     1.21635566
  WF centre and spread   10  (  0.000000,  0.000000,  2.357287 )     1.14636384
  WF centre and spread   11  (  0.000000,  0.000000,  2.356973 )     1.14647314
  WF centre and spread   12  (  1.999169,  0.000000,  0.165149 )     0.63848798
  WF centre and spread   13  (  1.999169, -0.000000,  0.145352 )     1.16517028
  WF centre and spread   14  (  1.999169, -0.000000,  0.148365 )     1.27716115
  WF centre and spread   15  (  1.999169,  0.000000,  0.148826 )     1.18248616
  Sum of centres and spreads ( 13.994186, 13.994186, 16.839763 )    14.75881834
 
     14    -0.148E-03     0.1025668285       14.7588183437       0.11  <-- CONV
        O_D=      0.0625322 O_OD=      2.9539703 O_TOT=     14.7588183 <-- SPRD
 Delta: O_D= -0.1457341E-04 O_OD= -0.1334275E-03 O_TOT= -0.1480009E-03 <-- DLTA
 ------------------------------------------------------------------------------
 Cycle:     15
  WF centre and spread    1  (  1.999169,  1.999169,  2.126700 )     0.69159350
  WF centre and spread    2  (  1.999169,  1.999169,  2.127996 )     0.69182862
  WF centre and spread    3  (  1.999169,  1.999169,  2.128014 )     0.69181950
  WF centre and spread    4  (  0.000000,  1.999169,  0.165199 )     0.63848951
  WF centre and spread    5  (  0.000000,  1.999169,  0.145607 )     1.16501185
  WF centre and spread    6  ( -0.000000,  1.999169,  0.148908 )     1.18286397
  WF centre and spread    7  ( -0.000000,  1.999169,  0.148658 )     1.27722544
  WF centre and spread    8  ( -0.000000, -0.000000,  2.227845 )     0.64771309
  WF centre and spread    9  ( -0.000000,  0.000000,  2.298915 )     1.21635442
  WF centre and spread   10  (  0.000000,  0.000000,  2.357344 )     1.14627416
  WF centre and spread   11  (  0.000000,  0.000000,  2.357023 )     1.14639250
  WF centre and spread   12  (  1.999169,  0.000000,  0.165174 )     0.63845558
  WF centre and spread   13  (  1.999169, -0.000000,  0.145287 )     1.16505960
  WF centre and spread   14  (  1.999169, -0.000000,  0.148350 )     1.27715412
  WF centre and spread   15  (  1.999169,  0.000000,  0.148823 )     1.18240224
  Sum of centres and spreads ( 13.994186, 13.994186, 16.839844 )    14.75863809
 
     15    -0.180E-03     0.1003648433       14.7586380916       0.12  <-- CONV
        O_D=      0.0625137 O_OD=      2.9538085 O_TOT=     14.7586381 <-- SPRD
 Delta: O_D= -0.1851782E-04 O_OD= -0.1617343E-03 O_TOT= -0.1802521E-03 <-- DLTA
 ------------------------------------------------------------------------------
 Cycle:     16
  WF centre and spread    1  (  1.999169,  1.999169,  2.126695 )     0.69179110
  WF centre and spread    2  (  1.999169,  1.999169,  2.127993 )     0.69204076
  WF centre and spread    3  (  1.999169,  1.999169,  2.128012 )     0.69203053
  WF centre and spread    4  (  0.000000,  1.999169,  0.165231 )     0.63845436
  WF centre and spread    5  (  0.000000,  1.999169,  0.145541 )     1.16486519
  WF centre and spread    6  ( -0.000000,  1.999169,  0.148906 )     1.18278154
  WF centre and spread    7  ( -0.000000,  1.999169,  0.148647 )     1.27721560
  WF centre and spread    8  ( -0.000000, -0.000000,  2.227711 )     0.64765860
  WF centre and spread    9  ( -0.000000,  0.000000,  2.299143 )     1.21635552
  WF centre and spread   10  (  0.000000,  0.000000,  2.357413 )     1.14616912
  WF centre and spread   11  (  0.000000,  0.000000,  2.357083 )     1.14629834
  WF centre and spread   12  (  1.999169,  0.000000,  0.165205 )     0.63841800
  WF centre and spread   13  (  1.999169, -0.000000,  0.145209 )     1.16493105
  WF centre and spread   14  (  1.999169, -0.000000,  0.148333 )     1.27714720
  WF centre and spread   15  (  1.999169,  0.000000,  0.148819 )     1.18230302
  Sum of centres and spreads ( 13.994186, 13.994186, 16.839941 )    14.75845993
 
     16    -0.178E-03     0.0973484572       14.7584599342       0.12  <-- CONV
        O_D=      0.0624940 O_OD=      2.9536500 O_TOT=     14.7584599 <-- SPRD
 Delta: O_D= -0.1966409E-04 O_OD= -0.1584934E-03 O_TOT= -0.1781575E-03 <-- DLTA
 ------------------------------------------------------------------------------
 Cycle:     17
  WF centre and spread    1  (  1.999169,  1.999169,  2.126690 )     0.69201409
  WF centre and spread    2  (  1.999169,  1.999169,  2.127989 )     0.69228095
  WF centre and spread    3  (  1.999169,  1.999169,  2.128011 )     0.69226921
  WF centre and spread    4  (  0.000000,  1.999169,  0.165266 )     0.63841724
  WF centre and spread    5  (  0.000000,  1.999169,  0.145468 )     1.16470816
  WF centre and spread    6  ( -0.000000,  1.999169,  0.148904 )     1.18269238
  WF centre and spread    7  ( -0.000000,  1.999169,  0.148635 )     1.27720648
  WF centre and spread    8  ( -0.000000, -0.000000,  2.227559 )     0.64759966
  WF centre and spread    9  ( -0.000000,  0.000000,  2.299397 )     1.21635995
  WF centre and spread   10  (  0.000000,  0.000000,  2.357489 )     1.14605646
  WF centre and spread   11  (  0.000000,  0.000000,  2.357148 )     1.14619770
  WF centre and spread   12  (  1.999169,  0.000000,  0.165240 )     0.63837815
  WF centre and spread   13  (  1.999169, -0.000000,  0.145123 )     1.16479457
  WF centre and spread   14  (  1.999169, -0.000000,  0.148313 )     1.27714150
  WF centre and spread   15  (  1.999169,  0.000000,  0.148814 )     1.18219542
  Sum of centres and spreads ( 13.994186, 13.994186, 16.840047 )    14.75831191
 
     17    -0.148E-03     0.0937853170       14.7583119117       0.13  <-- CONV
        O_D=      0.0624756 O_OD=      2.9535205 O_TOT=     14.7583119 <-- SPRD
 Delta: O_D= -0.1846758E-04 O_OD= -0.1295549E-03 O_TOT= -0.1480225E-03 <-- DLTA
 ------------------------------------------------------------------------------
 Cycle:     18
  WF centre and spread    1  (  1.999169,  1.999169,  2.126685 )     0.69225301
  WF centre and spread    2  (  1.999169,  1.999169,  2.127985 )     0.69253925
  WF centre and spread    3  (  1.999169,  1.999169,  2.128009 )     0.69252553
  WF centre and spread    4  (  0.000000,  1.999169,  0.165304 )     0.63838030
  WF centre and spread    5  (  0.000000,  1.999169,  0.145392 )     1.16454928
  WF centre and spread    6  ( -0.000000,  1.999169,  0.148901 )     1.18260118
  WF centre and spread    7  ( -0.000000,  1.999169,  0.148623 )     1.27719892
  WF centre and spread    8  ( -0.000000, -0.000000,  2.227396 )     0.64753927
  WF centre and spread    9  ( -0.000000,  0.000000,  2.299667 )     1.21636812
  WF centre and spread   10  (  0.000000,  0.000000,  2.357567 )     1.14594221
  WF centre and spread   11  (  0.000000,  0.000000,  2.357216 )     1.14609610
  WF centre and spread   12  (  1.999169,  0.000000,  0.165277 )     0.63833830
  WF centre and spread   13  (  1.999169, -0.000000,  0.145033 )     1.16465787
  WF centre and spread   14  (  1.999169, -0.000000,  0.148293 )     1.27713771
  WF centre and spread   15  (  1.999169,  0.000000,  0.148808 )     1.18208498
  Sum of centres and spreads ( 13.994186, 13.994186, 16.840157 )    14.75821204
 
     18    -0.999E-04     0.0899322414       14.7582120353       0.13  <-- CONV
        O_D=      0.0624599 O_OD=      2.9534363 O_TOT=     14.7582120 <-- SPRD
 Delta: O_D= -0.1569134E-04 O_OD= -0.8418505E-04 O_TOT= -0.9987639E-04 <-- DLTA
 ------------------------------------------------------------------------------
 Cycle:     19
  WF centre and spread    1  (  1.999169,  1.999169,  2.126684 )     0.69229399
  WF centre and spread    2  (  1.999169,  1.999169,  2.127984 )     0.69258425
  WF centre and spread    3  (  1.999169,  1.999169,  2.128008 )     0.69256987
  WF centre and spread    4  (  0.000000,  1.999169,  0.165312 )     0.63837456
  WF centre and spread    5  (  0.000000,  1.999169,  0.145379 )     1.16452218
  WF centre and spread    6  ( -0.000000,  1.999169,  0.148900 )     1.18258650
  WF centre and spread    7  ( -0.000000,  1.999169,  0.148621 )     1.27719814
  WF centre and spread    8  ( -0.000000, -0.000000,  2.227364 )     0.64752888
  WF centre and spread    9  ( -0.000000,  0.000000,  2.299716 )     1.21636990
  WF centre and spread   10  (  0.000000,  0.000000,  2.357580 )     1.14592354
  WF centre and spread   11  (  0.000000,  0.000000,  2.357227 )     1.14607993
  WF centre and spread   12  (  1.999169,  0.000000,  0.165285 )     0.63833197
  WF centre and spread   13  (  1.999169, -0.000000,  0.145017 )     1.16463495
  WF centre and spread   14  (  1.999169, -0.000000,  0.148290 )     1.27713763
  WF centre and spread   15  (  1.999169,  0.000000,  0.148807 )     1.18206703
  Sum of centres and spreads ( 13.994186, 13.994186, 16.840174 )    14.75820330
 
     19    -0.874E-05     0.0860014411       14.7582032982       0.14  <-- CONV
        O_D=      0.0624583 O_OD=      2.9534291 O_TOT=     14.7582033 <-- SPRD
 Delta: O_D= -0.1552627E-05 O_OD= -0.7184507E-05 O_TOT= -0.8737134E-05 <-- DLTA
 ------------------------------------------------------------------------------
 Cycle:     20
  WF centre and spread    1  (  1.999169,  1.999169,  2.126682 )     0.69237375
  WF centre and spread    2  (  1.999169,  1.999169,  2.127982 )     0.69267192
  WF centre and spread    3  (  1.999169,  1.999169,  2.128007 )     0.69265622
  WF centre and spread    4  (  0.000000,  1.999169,  0.165326 )     0.63836360
  WF centre and spread    5  (  0.000000,  1.999169,  0.145354 )     1.16447023
  WF centre and spread    6  ( -0.000000,  1.999169,  0.148899 )     1.18255824
  WF centre and spread    7  ( -0.000000,  1.999169,  0.148617 )     1.27719676
  WF centre and spread    8  ( -0.000000, -0.000000,  2.227302 )     0.64750886
  WF centre and spread    9  ( -0.000000,  0.000000,  2.299811 )     1.21637359
  WF centre and spread   10  (  0.000000,  0.000000,  2.357604 )     1.14588770
  WF centre and spread   11  (  0.000000,  0.000000,  2.357248 )     1.14604890
  WF centre and spread   12  (  1.999169,  0.000000,  0.165299 )     0.63831987
  WF centre and spread   13  (  1.999169, -0.000000,  0.144987 )     1.16459113
  WF centre and spread   14  (  1.999169, -0.000000,  0.148284 )     1.27713762
  WF centre and spread   15  (  1.999169,  0.000000,  0.148806 )     1.18203246
  Sum of centres and spreads ( 13.994186, 13.994186, 16.840206 )    14.75819085
 
     20    -0.125E-04     0.0853853897       14.7581908451       0.15  <-- CONV
        O_D=      0.0624556 O_OD=      2.9534194 O_TOT=     14.7581908 <-- SPRD
 Delta: O_D= -0.2750520E-05 O_OD= -0.9702515E-05 O_TOT= -0.1245304E-04 <-- DLTA
 ------------------------------------------------------------------------------
 Cycle:     21
  WF centre and spread    1  (  1.999169,  1.999169,  2.126679 )     0.69248815
  WF centre and spread    2  (  1.999169,  1.999169,  2.127979 )     0.69279785
  WF centre and spread    3  (  1.999169,  1.999169,  2.128006 )     0.69278014
  WF centre and spread    4  (  0.000000,  1.999169,  0.165346 )     0.63834838
  WF centre and spread    5  (  0.000000,  1.999169,  0.145318 )     1.16439759
  WF centre and spread    6  ( -0.000000,  1.999169,  0.148898 )     1.18251845
  WF centre and spread    7  ( -0.000000,  1.999169,  0.148612 )     1.27719512
  WF centre and spread    8  ( -0.000000, -0.000000,  2.227213 )     0.64748063
  WF centre and spread    9  ( -0.000000,  0.000000,  2.299946 )     1.21637935
  WF centre and spread   10  (  0.000000,  0.000000,  2.357638 )     1.14583740
  WF centre and spread   11  (  0.000000,  0.000000,  2.357277 )     1.14600544
  WF centre and spread   12  (  1.999169,  0.000000,  0.165319 )     0.63830301
  WF centre and spread   13  (  1.999169, -0.000000,  0.144945 )     1.16453009
  WF centre and spread   14  (  1.999169, -0.000000,  0.148275 )     1.27713796
  WF centre and spread   15  (  1.999169,  0.000000,  0.148803 )     1.18198372
  Sum of centres and spreads ( 13.994186, 13.994186, 16.840253 )    14.75818328
 
     21    -0.757E-05     0.0842016186       14.7581832799       0.15  <-- CONV
        O_D=      0.0624522 O_OD=      2.9534152 O_TOT=     14.7581833 <-- SPRD
 Delta: O_D= -0.3328022E-05 O_OD= -0.4237224E-05 O_TOT= -0.7565245E-05 <-- DLTA
 ------------------------------------------------------------------------------
 Cycle:     22
  WF centre and spread    1  (  1.999169,  1.999169,  2.126676 )     0.69263173
  WF centre and spread    2  (  1.999169,  1.999169,  2.127975 )     0.69295623
  WF centre and spread    3  (  1.999169,  1.999169,  2.128004 )     0.69293582
  WF centre and spread    4  (  0.000000,  1.999169,  0.165372 )     0.63833006
  WF centre and spread    5  (  0.000000,  1.999169,  0.145274 )     1.16430940
  WF centre and spread    6  ( -0.000000,  1.999169,  0.148896 )     1.18246970
  WF centre and spread    7  ( -0.000000,  1.999169,  0.148605 )     1.27719360
  WF centre and spread    8  ( -0.000000, -0.000000,  2.227101 )     0.64744594
  WF centre and spread    9  ( -0.000000,  0.000000,  2.300115 )     1.21638737
  WF centre and spread   10  (  0.000000,  0.000000,  2.357680 )     1.14577607
  WF centre and spread   11  (  0.000000,  0.000000,  2.357313 )     1.14595260
  WF centre and spread   12  (  1.999169,  0.000000,  0.165344 )     0.63828266
  WF centre and spread   13  (  1.999169, -0.000000,  0.144892 )     1.16445639
  WF centre and spread   14  (  1.999169, -0.000000,  0.148264 )     1.27713895
  WF centre and spread   15  (  1.999169,  0.000000,  0.148799 )     1.18192394
  Sum of centres and spreads ( 13.994186, 13.994186, 16.840310 )    14.75819047
 
     22     0.719E-05     0.0825396070       14.7581904666       0.16  <-- CONV
        O_D=      0.0624491 O_OD=      2.9534255 O_TOT=     14.7581905 <-- SPRD
 Delta: O_D= -0.3172212E-05 O_OD=  0.1035893E-04 O_TOT=  0.7186721E-05 <-- DLTA
 ------------------------------------------------------------------------------
 Cycle:     23
  WF centre and spread    1  (  1.999169,  1.999169,  2.126672 )     0.69279856
  WF centre and spread    2  (  1.999169,  1.999169,  2.127971 )     0.69314072
  WF centre and spread    3  (  1.999169,  1.999169,  2.128001 )     0.69311691
  WF centre and spread    4  (  0.000000,  1.999169,  0.165401 )     0.63830985
  WF centre and spread    5  (  0.000000,  1.999169,  0.145224 )     1.16421099
  WF centre and spread    6  ( -0.000000,  1.999169,  0.148893 )     1.18241469
  WF centre and spread    7  ( -0.000000,  1.999169,  0.148598 )     1.27719256
  WF centre and spread    8  ( -0.000000, -0.000000,  2.226971 )     0.64740665
  WF centre and spread    9  ( -0.000000,  0.000000,  2.300310 )     1.21639769
  WF centre and spread   10  (  0.000000,  0.000000,  2.357728 )     1.14570724
  WF centre and spread   11  (  0.000000,  0.000000,  2.357354 )     1.14589349
  WF centre and spread   12  (  1.999169,  0.000000,  0.165373 )     0.63826008
  WF centre and spread   13  (  1.999169, -0.000000,  0.144831 )     1.16437471
  WF centre and spread   14  (  1.999169, -0.000000,  0.148251 )     1.27714086
  WF centre and spread   15  (  1.999169,  0.000000,  0.148795 )     1.18185634
  Sum of centres and spreads ( 13.994186, 13.994186, 16.840375 )    14.75822133
 
     23     0.309E-04     0.0805132149       14.7582213276       0.16  <-- CONV
        O_D=      0.0624467 O_OD=      2.9534587 O_TOT=     14.7582213 <-- SPRD
 Delta: O_D= -0.2318691E-05 O_OD=  0.3317970E-04 O_TOT=  0.3086101E-04 <-- DLTA
 ------------------------------------------------------------------------------
 Cycle:     24
  WF centre and spread    1  (  1.999169,  1.999169,  2.126668 )     0.69298290
  WF centre and spread    2  (  1.999169,  1.999169,  2.127965 )     0.69334514
  WF centre and spread    3  (  1.999169,  1.999169,  2.127998 )     0.69331722
  WF centre and spread    4  (  0.000000,  1.999169,  0.165434 )     0.63828881
  WF centre and spread    5  (  0.000000,  1.999169,  0.145170 )     1.16410714
  WF centre and spread    6  ( -0.000000,  1.999169,  0.148891 )     1.18235586
  WF centre and spread    7  ( -0.000000,  1.999169,  0.148590 )     1.27719227
  WF centre and spread    8  ( -0.000000, -0.000000,  2.226828 )     0.64736441
  WF centre and spread    9  ( -0.000000,  0.000000,  2.300524 )     1.21641027
  WF centre and spread   10  (  0.000000,  0.000000,  2.357780 )     1.14563410
  WF centre and spread   11  (  0.000000,  0.000000,  2.357399 )     1.14583092
  WF centre and spread   12  (  1.999169,  0.000000,  0.165405 )     0.63823644
  WF centre and spread   13  (  1.999169, -0.000000,  0.144766 )     1.16428920
  WF centre and spread   14  (  1.999169, -0.000000,  0.148238 )     1.27714385
  WF centre and spread   15  (  1.999169,  0.000000,  0.148791 )     1.18178392
  Sum of centres and spreads ( 13.994186, 13.994186, 16.840445 )    14.75828244
 
     24     0.611E-04     0.0782425245       14.7582824426       0.17  <-- CONV
        O_D=      0.0624458 O_OD=      2.9535207 O_TOT=     14.7582824 <-- SPRD
 Delta: O_D= -0.9025010E-06 O_OD=  0.6201753E-04 O_TOT=  0.6111503E-04 <-- DLTA
 ------------------------------------------------------------------------------
 Cycle:     25
  WF centre and spread    1  (  1.999169,  1.999169,  2.126667 )     0.69301411
  WF centre and spread    2  (  1.999169,  1.999169,  2.127964 )     0.69338016
  WF centre and spread    3  (  1.999169,  1.999169,  2.127998 )     0.69335125
  WF centre and spread    4  (  0.000000,  1.999169,  0.165440 )     0.63828560
  WF centre and spread    5  (  0.000000,  1.999169,  0.145161 )     1.16408970
  WF centre and spread    6  ( -0.000000,  1.999169,  0.148890 )     1.18234642
  WF centre and spread    7  ( -0.000000,  1.999169,  0.148588 )     1.27719239
  WF centre and spread    8  ( -0.000000, -0.000000,  2.226801 )     0.64735716
  WF centre and spread    9  ( -0.000000,  0.000000,  2.300562 )     1.21641248
  WF centre and spread   10  (  0.000000,  0.000000,  2.357788 )     1.14562225
  WF centre and spread   11  (  0.000000,  0.000000,  2.357406 )     1.14582100
  WF centre and spread   12  (  1.999169,  0.000000,  0.165411 )     0.63823272
  WF centre and spread   13  (  1.999169, -0.000000,  0.144755 )     1.16427502
  WF centre and spread   14  (  1.999169, -0.000000,  0.148235 )     1.27714455
  WF centre and spread   15  (  1.999169,  0.000000,  0.148790 )     1.18177222
  Sum of centres and spreads ( 13.994186, 13.994186, 16.840456 )    14.75829703
 
     25     0.146E-04     0.0758392043       14.7582970271       0.17  <-- CONV
        O_D=      0.0624463 O_OD=      2.9535349 O_TOT=     14.7582970 <-- SPRD
 Delta: O_D=  0.4222122E-06 O_OD=  0.1416222E-04 O_TOT=  0.1458443E-04 <-- DLTA
 ------------------------------------------------------------------------------
 Cycle:     26
  WF centre and spread    1  (  1.999169,  1.999169,  2.126665 )     0.69307527
  WF centre and spread    2  (  1.999169,  1.999169,  2.127962 )     0.69344885
  WF centre and spread    3  (  1.999169,  1.999169,  2.127996 )     0.69341798
  WF centre and spread    4  (  0.000000,  1.999169,  0.165452 )     0.63827939
  WF centre and spread    5  (  0.000000,  1.999169,  0.145143 )     1.16405597
  WF centre and spread    6  ( -0.000000,  1.999169,  0.148889 )     1.18232806
  WF centre and spread    7  ( -0.000000,  1.999169,  0.148586 )     1.27719270
  WF centre and spread    8  ( -0.000000, -0.000000,  2.226749 )     0.64734304
  WF centre and spread    9  ( -0.000000,  0.000000,  2.300636 )     1.21641688
  WF centre and spread   10  (  0.000000,  0.000000,  2.357804 )     1.14559928
  WF centre and spread   11  (  0.000000,  0.000000,  2.357419 )     1.14580177
  WF centre and spread   12  (  1.999169,  0.000000,  0.165423 )     0.63822553
  WF centre and spread   13  (  1.999169, -0.000000,  0.144733 )     1.16424763
  WF centre and spread   14  (  1.999169, -0.000000,  0.148231 )     1.27714598
  WF centre and spread   15  (  1.999169,  0.000000,  0.148789 )     1.18174946
  Sum of centres and spreads ( 13.994186, 13.994186, 16.840478 )    14.75832778
 
     26     0.308E-04     0.0754654260       14.7583277823       0.18  <-- CONV
        O_D=      0.0624472 O_OD=      2.9535647 O_TOT=     14.7583278 <-- SPRD
 Delta: O_D=  0.9603430E-06 O_OD=  0.2979489E-04 O_TOT=  0.3075523E-04 <-- DLTA
 ------------------------------------------------------------------------------
 Cycle:     27
  WF centre and spread    1  (  1.999169,  1.999169,  2.126663 )     0.69316403
  WF centre and spread    2  (  1.999169,  1.999169,  2.127958 )     0.69354864
  WF centre and spread    3  (  1.999169,  1.999169,  2.127994 )     0.69351481
  WF centre and spread    4  (  0.000000,  1.999169,  0.165469 )     0.63827062
  WF centre and spread    5  (  0.000000,  1.999169,  0.145118 )     1.16400803
  WF centre and spread    6  ( -0.000000,  1.999169,  0.148888 )     1.18230179
  WF centre and spread    7  ( -0.000000,  1.999169,  0.148582 )     1.27719328
  WF centre and spread    8  ( -0.000000, -0.000000,  2.226673 )     0.64732276
  WF centre and spread    9  ( -0.000000,  0.000000,  2.300743 )     1.21642345
  WF centre and spread   10  (  0.000000,  0.000000,  2.357827 )     1.14556647
  WF centre and spread   11  (  0.000000,  0.000000,  2.357439 )     1.14577435
  WF centre and spread   12  (  1.999169,  0.000000,  0.165440 )     0.63821534
  WF centre and spread   13  (  1.999169, -0.000000,  0.144702 )     1.16420882
  WF centre and spread   14  (  1.999169, -0.000000,  0.148225 )     1.27714820
  WF centre and spread   15  (  1.999169,  0.000000,  0.148786 )     1.18171685
  Sum of centres and spreads ( 13.994186, 13.994186, 16.840508 )    14.75837745
 
     27     0.497E-04     0.0747414413       14.7583774513       0.18  <-- CONV
        O_D=      0.0624489 O_OD=      2.9536126 O_TOT=     14.7583775 <-- SPRD
 Delta: O_D=  0.1704991E-05 O_OD=  0.4796398E-04 O_TOT=  0.4966897E-04 <-- DLTA
 ------------------------------------------------------------------------------
 Cycle:     28
  WF centre and spread    1  (  1.999169,  1.999169,  2.126660 )     0.69327723
  WF centre and spread    2  (  1.999169,  1.999169,  2.127954 )     0.69367607
  WF centre and spread    3  (  1.999169,  1.999169,  2.127992 )     0.69363833
  WF centre and spread    4  (  0.000000,  1.999169,  0.165491 )     0.63825983
  WF centre and spread    5  (  0.000000,  1.999169,  0.145086 )     1.16394860
  WF centre and spread    6  ( -0.000000,  1.999169,  0.148886 )     1.18226889
  WF centre and spread    7  ( -0.000000,  1.999169,  0.148577 )     1.27719426
  WF centre and spread    8  ( -0.000000, -0.000000,  2.226576 )     0.64729728
  WF centre and spread    9  ( -0.000000,  0.000000,  2.300879 )     1.21643211
  WF centre and spread   10  (  0.000000,  0.000000,  2.357856 )     1.14552553
  WF centre and spread   11  (  0.000000,  0.000000,  2.357464 )     1.14574023
  WF centre and spread   12  (  1.999169,  0.000000,  0.165461 )     0.63820274
  WF centre and spread   13  (  1.999169, -0.000000,  0.144663 )     1.16416092
  WF centre and spread   14  (  1.999169, -0.000000,  0.148217 )     1.27715126
  WF centre and spread   15  (  1.999169,  0.000000,  0.148784 )     1.18167599
  Sum of centres and spreads ( 13.994186, 13.994186, 16.840547 )    14.75844926
 
     28     0.718E-04     0.0737111274       14.7584492626       0.19  <-- CONV
        O_D=      0.0624516 O_OD=      2.9536817 O_TOT=     14.7584493 <-- SPRD
 Delta: O_D=  0.2705845E-05 O_OD=  0.6910551E-04 O_TOT=  0.7181135E-04 <-- DLTA
 ------------------------------------------------------------------------------
 Cycle:     29
  WF centre and spread    1  (  1.999169,  1.999169,  2.126656 )     0.69341129
  WF centre and spread    2  (  1.999169,  1.999169,  2.127949 )     0.69382721
  WF centre and spread    3  (  1.999169,  1.999169,  2.127989 )     0.69378459
  WF centre and spread    4  (  0.000000,  1.999169,  0.165516 )     0.63824762
  WF centre and spread    5  (  0.000000,  1.999169,  0.145049 )     1.16388064
  WF centre and spread    6  ( -0.000000,  1.999169,  0.148884 )     1.18223079
  WF centre and spread    7  ( -0.000000,  1.999169,  0.148572 )     1.27719574
  WF centre and spread    8  ( -0.000000, -0.000000,  2.226462 )     0.64726760
  WF centre and spread    9  ( -0.000000,  0.000000,  2.301039 )     1.21644275
  WF centre and spread   10  (  0.000000,  0.000000,  2.357890 )     1.14547834
  WF centre and spread   11  (  0.000000,  0.000000,  2.357492 )     1.14570101
  WF centre and spread   12  (  1.999169,  0.000000,  0.165486 )     0.63818838
  WF centre and spread   13  (  1.999169, -0.000000,  0.144618 )     1.16410645
  WF centre and spread   14  (  1.999169, -0.000000,  0.148209 )     1.27715522
  WF centre and spread   15  (  1.999169,  0.000000,  0.148780 )     1.18162861
  Sum of centres and spreads ( 13.994186, 13.994186, 16.840592 )    14.75854624
 
     29     0.970E-04     0.0724322807       14.7585462413       0.19  <-- CONV
        O_D=      0.0624556 O_OD=      2.9537748 O_TOT=     14.7585462 <-- SPRD
 Delta: O_D=  0.3969342E-05 O_OD=  0.9300937E-04 O_TOT=  0.9697871E-04 <-- DLTA
 ------------------------------------------------------------------------------
 Cycle:     30
  WF centre and spread    1  (  1.999169,  1.999169,  2.126652 )     0.69356252
  WF centre and spread    2  (  1.999169,  1.999169,  2.127942 )     0.69399801
  WF centre and spread    3  (  1.999169,  1.999169,  2.127985 )     0.69394959
  WF centre and spread    4  (  0.000000,  1.999169,  0.165545 )     0.63823456
  WF centre and spread    5  (  0.000000,  1.999169,  0.145008 )     1.16380705
  WF centre and spread    6  ( -0.000000,  1.999169,  0.148882 )     1.18218891
  WF centre and spread    7  ( -0.000000,  1.999169,  0.148566 )     1.27719781
  WF centre and spread    8  ( -0.000000, -0.000000,  2.226333 )     0.64723476
  WF centre and spread    9  ( -0.000000,  0.000000,  2.301219 )     1.21645522
  WF centre and spread   10  (  0.000000,  0.000000,  2.357927 )     1.14542671
  WF centre and spread   11  (  0.000000,  0.000000,  2.357524 )     1.14565826
  WF centre and spread   12  (  1.999169,  0.000000,  0.165515 )     0.63817290
  WF centre and spread   13  (  1.999169, -0.000000,  0.144567 )     1.16404785
  WF centre and spread   14  (  1.999169, -0.000000,  0.148199 )     1.27716009
  WF centre and spread   15  (  1.999169,  0.000000,  0.148777 )     1.18157647
  Sum of centres and spreads ( 13.994186, 13.994186, 16.840641 )    14.75867070
 
     30     0.124E-03     0.0709691773       14.7586706968       0.20  <-- CONV
        O_D=      0.0624611 O_OD=      2.9538937 O_TOT=     14.7586707 <-- SPRD
 Delta: O_D=  0.5468024E-05 O_OD=  0.1189874E-03 O_TOT=  0.1244555E-03 <-- DLTA
 ------------------------------------------------------------------------------
 Cycle:     31
  WF centre and spread    1  (  1.999169,  1.999169,  2.126651 )     0.69358801
  WF centre and spread    2  (  1.999169,  1.999169,  2.127941 )     0.69402703
  WF centre and spread    3  (  1.999169,  1.999169,  2.127984 )     0.69397738
  WF centre and spread    4  (  0.000000,  1.999169,  0.165550 )     0.63823258
  WF centre and spread    5  (  0.000000,  1.999169,  0.145001 )     1.16379481
  WF centre and spread    6  ( -0.000000,  1.999169,  0.148881 )     1.18218219
  WF centre and spread    7  ( -0.000000,  1.999169,  0.148565 )     1.27719823
  WF centre and spread    8  ( -0.000000, -0.000000,  2.226310 )     0.64722913
  WF centre and spread    9  ( -0.000000,  0.000000,  2.301250 )     1.21645732
  WF centre and spread   10  (  0.000000,  0.000000,  2.357933 )     1.14541839
  WF centre and spread   11  (  0.000000,  0.000000,  2.357529 )     1.14565148
  WF centre and spread   12  (  1.999169,  0.000000,  0.165520 )     0.63817048
  WF centre and spread   13  (  1.999169, -0.000000,  0.144559 )     1.16403818
  WF centre and spread   14  (  1.999169, -0.000000,  0.148197 )     1.27716097
  WF centre and spread   15  (  1.999169,  0.000000,  0.148776 )     1.18156805
  Sum of centres and spreads ( 13.994186, 13.994186, 16.840649 )    14.75869421
 
     31     0.235E-04     0.0693857776       14.7586942106       0.21  <-- CONV
        O_D=      0.0624624 O_OD=      2.9539159 O_TOT=     14.7586942 <-- SPRD
 Delta: O_D=  0.1337993E-05 O_OD=  0.2217584E-04 O_TOT=  0.2351383E-04 <-- DLTA
 ------------------------------------------------------------------------------
 Cycle:     32
  WF centre and spread    1  (  1.999169,  1.999169,  2.126650 )     0.69363819
  WF centre and spread    2  (  1.999169,  1.999169,  2.127939 )     0.69408419
  WF centre and spread    3  (  1.999169,  1.999169,  2.127983 )     0.69403209
  WF centre and spread    4  (  0.000000,  1.999169,  0.165561 )     0.63822875
  WF centre and spread    5  (  0.000000,  1.999169,  0.144988 )     1.16377099
  WF centre and spread    6  ( -0.000000,  1.999169,  0.148881 )     1.18216904
  WF centre and spread    7  ( -0.000000,  1.999169,  0.148563 )     1.27719906
  WF centre and spread    8  ( -0.000000, -0.000000,  2.226264 )     0.64721809
  WF centre and spread    9  ( -0.000000,  0.000000,  2.301312 )     1.21646148
  WF centre and spread   10  (  0.000000,  0.000000,  2.357945 )     1.14540213
  WF centre and spread   11  (  0.000000,  0.000000,  2.357539 )     1.14563826
  WF centre and spread   12  (  1.999169,  0.000000,  0.165530 )     0.63816576
  WF centre and spread   13  (  1.999169, -0.000000,  0.144542 )     1.16401939
  WF centre and spread   14  (  1.999169, -0.000000,  0.148194 )     1.27716274
  WF centre and spread   15  (  1.999169,  0.000000,  0.148775 )     1.18155158
  Sum of centres and spreads ( 13.994186, 13.994186, 16.840665 )    14.75874174
 
     32     0.475E-04     0.0691408761       14.7587417434       0.21  <-- CONV
        O_D=      0.0624651 O_OD=      2.9539607 O_TOT=     14.7587417 <-- SPRD
 Delta: O_D=  0.2724702E-05 O_OD=  0.4480809E-04 O_TOT=  0.4753279E-04 <-- DLTA
 ------------------------------------------------------------------------------
 Cycle:     33
  WF centre and spread    1  (  1.999169,  1.999169,  2.126647 )     0.69371160
  WF centre and spread    2  (  1.999169,  1.999169,  2.127935 )     0.69416784
  WF centre and spread    3  (  1.999169,  1.999169,  2.127981 )     0.69411208
  WF centre and spread    4  (  0.000000,  1.999169,  0.165576 )     0.63822329
  WF centre and spread    5  (  0.000000,  1.999169,  0.144969 )     1.16373680
  WF centre and spread    6  ( -0.000000,  1.999169,  0.148880 )     1.18215001
  WF centre and spread    7  ( -0.000000,  1.999169,  0.148560 )     1.27720036
  WF centre and spread    8  ( -0.000000, -0.000000,  2.226197 )     0.64720208
  WF centre and spread    9  ( -0.000000,  0.000000,  2.301402 )     1.21646763
  WF centre and spread   10  (  0.000000,  0.000000,  2.357962 )     1.14537866
  WF centre and spread   11  (  0.000000,  0.000000,  2.357553 )     1.14561920
  WF centre and spread   12  (  1.999169,  0.000000,  0.165545 )     0.63815900
  WF centre and spread   13  (  1.999169, -0.000000,  0.144518 )     1.16399249
  WF centre and spread   14  (  1.999169, -0.000000,  0.148189 )     1.27716539
  WF centre and spread   15  (  1.999169,  0.000000,  0.148773 )     1.18152775
  Sum of centres and spreads ( 13.994186, 13.994186, 16.840687 )    14.75881419
 
     33     0.724E-04     0.0686643066       14.7588141889       0.22  <-- CONV
        O_D=      0.0624693 O_OD=      2.9540290 O_TOT=     14.7588142 <-- SPRD
 Delta: O_D=  0.4201630E-05 O_OD=  0.6824386E-04 O_TOT=  0.7244549E-04 <-- DLTA
 ------------------------------------------------------------------------------
 Cycle:     34
  WF centre and spread    1  (  1.999169,  1.999169,  2.126644 )     0.69380624
  WF centre and spread    2  (  1.999169,  1.999169,  2.127930 )     0.69427575
  WF centre and spread    3  (  1.999169,  1.999169,  2.127978 )     0.69421515
  WF centre and spread    4  (  0.000000,  1.999169,  0.165595 )     0.63821648
  WF centre and spread    5  (  0.000000,  1.999169,  0.144945 )     1.16369385
  WF centre and spread    6  ( -0.000000,  1.999169,  0.148878 )     1.18212586
  WF centre and spread    7  ( -0.000000,  1.999169,  0.148557 )     1.27720214
  WF centre and spread    8  ( -0.000000, -0.000000,  2.226111 )     0.64718166
  WF centre and spread    9  ( -0.000000,  0.000000,  2.301517 )     1.21647567
  WF centre and spread   10  (  0.000000,  0.000000,  2.357983 )     1.14534894
  WF centre and spread   11  (  0.000000,  0.000000,  2.357571 )     1.14559513
  WF centre and spread   12  (  1.999169,  0.000000,  0.165564 )     0.63815051
  WF centre and spread   13  (  1.999169, -0.000000,  0.144488 )     1.16395883
  WF centre and spread   14  (  1.999169, -0.000000,  0.148184 )     1.27716893
  WF centre and spread   15  (  1.999169,  0.000000,  0.148771 )     1.18149747
  Sum of centres and spreads ( 13.994186, 13.994186, 16.840715 )    14.75891260
 
     34     0.984E-04     0.0679806507       14.7589126010       0.22  <-- CONV
        O_D=      0.0624751 O_OD=      2.9541216 O_TOT=     14.7589126 <-- SPRD
 Delta: O_D=  0.5796135E-05 O_OD=  0.9261597E-04 O_TOT=  0.9841210E-04 <-- DLTA
 ------------------------------------------------------------------------------
 Cycle:     35
  WF centre and spread    1  (  1.999169,  1.999169,  2.126641 )     0.69391981
  WF centre and spread    2  (  1.999169,  1.999169,  2.127924 )     0.69440531
  WF centre and spread    3  (  1.999169,  1.999169,  2.127974 )     0.69433869
  WF centre and spread    4  (  0.000000,  1.999169,  0.165618 )     0.63820864
  WF centre and spread    5  (  0.000000,  1.999169,  0.144916 )     1.16364398
  WF centre and spread    6  ( -0.000000,  1.999169,  0.148876 )     1.18209741
  WF centre and spread    7  ( -0.000000,  1.999169,  0.148553 )     1.27720444
  WF centre and spread    8  ( -0.000000, -0.000000,  2.226008 )     0.64715746
  WF centre and spread    9  ( -0.000000,  0.000000,  2.301655 )     1.21648548
  WF centre and spread   10  (  0.000000,  0.000000,  2.358008 )     1.14531408
  WF centre and spread   11  (  0.000000,  0.000000,  2.357593 )     1.14556696
  WF centre and spread   12  (  1.999169,  0.000000,  0.165586 )     0.63814067
  WF centre and spread   13  (  1.999169, -0.000000,  0.144452 )     1.16391992
  WF centre and spread   14  (  1.999169, -0.000000,  0.148177 )     1.27717332
  WF centre and spread   15  (  1.999169,  0.000000,  0.148768 )     1.18146179
  Sum of centres and spreads ( 13.994186, 13.994186, 16.840749 )    14.75903795
 
     35     0.125E-03     0.0671229545       14.7590379500       0.23  <-- CONV
        O_D=      0.0624827 O_OD=      2.9542394 O_TOT=     14.7590379 <-- SPRD
 Delta: O_D=  0.7520048E-05 O_OD=  0.1178289E-03 O_TOT=  0.1253489E-03 <-- DLTA
 ------------------------------------------------------------------------------
 Cycle:     36
  WF centre and spread    1  (  1.999169,  1.999169,  2.126636 )     0.69404984
  WF centre and spread    2  (  1.999169,  1.999169,  2.127917 )     0.69455375
  WF centre and spread    3  (  1.999169,  1.999169,  2.127970 )     0.69447997
  WF centre and spread    4  (  0.000000,  1.999169,  0.165644 )     0.63820012
  WF centre and spread    5  (  0.000000,  1.999169,  0.144884 )     1.16358905
  WF centre and spread    6  ( -0.000000,  1.999169,  0.148874 )     1.18206555
  WF centre and spread    7  ( -0.000000,  1.999169,  0.148548 )     1.27720728
  WF centre and spread    8  ( -0.000000, -0.000000,  2.225890 )     0.64713015
  WF centre and spread    9  ( -0.000000,  0.000000,  2.301812 )     1.21649691
  WF centre and spread   10  (  0.000000,  0.000000,  2.358037 )     1.14527520
  WF centre and spread   11  (  0.000000,  0.000000,  2.357617 )     1.14553565
  WF centre and spread   12  (  1.999169,  0.000000,  0.165612 )     0.63812984
  WF centre and spread   13  (  1.999169, -0.000000,  0.144411 )     1.16387729
  WF centre and spread   14  (  1.999169, -0.000000,  0.148169 )     1.27717856
  WF centre and spread   15  (  1.999169,  0.000000,  0.148765 )     1.18142178
  Sum of centres and spreads ( 13.994186, 13.994186, 16.840787 )    14.75919093
 
     36     0.153E-03     0.0661292250       14.7591909280       0.23  <-- CONV
        O_D=      0.0624920 O_OD=      2.9543830 O_TOT=     14.7591909 <-- SPRD
 Delta: O_D=  0.9372115E-05 O_OD=  0.1436059E-03 O_TOT=  0.1529780E-03 <-- DLTA
 ------------------------------------------------------------------------------
 Cycle:     37
  WF centre and spread    1  (  1.999169,  1.999169,  2.126636 )     0.69407173
  WF centre and spread    2  (  1.999169,  1.999169,  2.127916 )     0.69457885
  WF centre and spread    3  (  1.999169,  1.999169,  2.127969 )     0.69450365
  WF centre and spread    4  (  0.000000,  1.999169,  0.165649 )     0.63819885
  WF centre and spread    5  (  0.000000,  1.999169,  0.144878 )     1.16357997
  WF centre and spread    6  ( -0.000000,  1.999169,  0.148874 )     1.18206043
  WF centre and spread    7  ( -0.000000,  1.999169,  0.148547 )     1.27720778
  WF centre and spread    8  ( -0.000000, -0.000000,  2.225869 )     0.64712548
  WF centre and spread    9  ( -0.000000,  0.000000,  2.301839 )     1.21649880
  WF centre and spread   10  (  0.000000,  0.000000,  2.358041 )     1.14526894
  WF centre and spread   11  (  0.000000,  0.000000,  2.357621 )     1.14553068
  WF centre and spread   12  (  1.999169,  0.000000,  0.165617 )     0.63812815
  WF centre and spread   13  (  1.999169, -0.000000,  0.144404 )     1.16387028
  WF centre and spread   14  (  1.999169, -0.000000,  0.148168 )     1.27717945
  WF centre and spread   15  (  1.999169,  0.000000,  0.148764 )     1.18141532
  Sum of centres and spreads ( 13.994186, 13.994186, 16.840793 )    14.75921836
 
     37     0.274E-04     0.0650389815       14.7592183576       0.24  <-- CONV
        O_D=      0.0624940 O_OD=      2.9544085 O_TOT=     14.7592184 <-- SPRD
 Delta: O_D=  0.1942371E-05 O_OD=  0.2548720E-04 O_TOT=  0.2742957E-04 <-- DLTA
 ------------------------------------------------------------------------------
 Cycle:     38
  WF centre and spread    1  (  1.999169,  1.999169,  2.126634 )     0.69411498
  WF centre and spread    2  (  1.999169,  1.999169,  2.127914 )     0.69462843
  WF centre and spread    3  (  1.999169,  1.999169,  2.127967 )     0.69455040
  WF centre and spread    4  (  0.000000,  1.999169,  0.165658 )     0.63819638
  WF centre and spread    5  (  0.000000,  1.999169,  0.144868 )     1.16356224
  WF centre and spread    6  ( -0.000000,  1.999169,  0.148873 )     1.18205037
  WF centre and spread    7  ( -0.000000,  1.999169,  0.148546 )     1.27720877
  WF centre and spread    8  ( -0.000000, -0.000000,  2.225828 )     0.64711629
  WF centre and spread    9  ( -0.000000,  0.000000,  2.301892 )     1.21650254
  WF centre and spread   10  (  0.000000,  0.000000,  2.358050 )     1.14525667
  WF centre and spread   11  (  0.000000,  0.000000,  2.357628 )     1.14552095
  WF centre and spread   12  (  1.999169,  0.000000,  0.165626 )     0.63812485
  WF centre and spread   13  (  1.999169, -0.000000,  0.144391 )     1.16385661
  WF centre and spread   14  (  1.999169, -0.000000,  0.148166 )     1.27718123
  WF centre and spread   15  (  1.999169,  0.000000,  0.148763 )     1.18140264
  Sum of centres and spreads ( 13.994186, 13.994186, 16.840804 )    14.75927333
 
     38     0.550E-04     0.0648715444       14.7592733268       0.24  <-- CONV
        O_D=      0.0624979 O_OD=      2.9544596 O_TOT=     14.7592733 <-- SPRD
 Delta: O_D=  0.3911668E-05 O_OD=  0.5105760E-04 O_TOT=  0.5496927E-04 <-- DLTA
 ------------------------------------------------------------------------------
 Cycle:     39
  WF centre and spread    1  (  1.999169,  1.999169,  2.126632 )     0.69417861
  WF centre and spread    2  (  1.999169,  1.999169,  2.127910 )     0.69470136
  WF centre and spread    3  (  1.999169,  1.999169,  2.127965 )     0.69461912
  WF centre and spread    4  (  0.000000,  1.999169,  0.165671 )     0.63819283
  WF centre and spread    5  (  0.000000,  1.999169,  0.144853 )     1.16353662
  WF centre and spread    6  ( -0.000000,  1.999169,  0.148872 )     1.18203572
  WF centre and spread    7  ( -0.000000,  1.999169,  0.148544 )     1.27721026
  WF centre and spread    8  ( -0.000000, -0.000000,  2.225767 )     0.64710285
[...]
  WF centre and spread    4  (  0.000000,  1.999169,  0.166314 )     0.63815320
  WF centre and spread    5  (  0.000000,  1.999169,  0.144372 )     1.16289018
  WF centre and spread    6  ( -0.000000,  1.999169,  0.148838 )     1.18156845
  WF centre and spread    7  ( -0.000000,  1.999169,  0.148477 )     1.27728602
  WF centre and spread    8  ( -0.000000, -0.000000,  2.222850 )     0.64653566
  WF centre and spread    9  ( -0.000000,  0.000000,  2.305454 )     1.21673120
  WF centre and spread   10  (  0.000000,  0.000000,  2.358468 )     1.14469606
  WF centre and spread   11  (  0.000000,  0.000000,  2.357976 )     1.14510387
  WF centre and spread   12  (  1.999169,  0.000000,  0.166269 )     0.63801033
  WF centre and spread   13  (  1.999169, -0.000000,  0.143686 )     1.16335225
  WF centre and spread   14  (  1.999169, -0.000000,  0.148050 )     1.27730305
  WF centre and spread   15  (  1.999169,  0.000000,  0.148709 )     1.18078586
  Sum of centres and spreads ( 13.994186, 13.994186, 16.841386 )    14.76525233
 
     90     0.222E-03     0.0581148007       14.7652523308       0.52  <-- CONV
        O_D=      0.0633729 O_OD=      2.9595636 O_TOT=     14.7652523 <-- SPRD
 Delta: O_D=  0.5137728E-04 O_OD=  0.1701553E-03 O_TOT=  0.2215326E-03 <-- DLTA
 ------------------------------------------------------------------------------
 Cycle:     91
  WF centre and spread    1  (  1.999169,  1.999169,  2.126490 )     0.69732777
  WF centre and spread    2  (  1.999169,  1.999169,  2.127640 )     0.69799764
  WF centre and spread    3  (  1.999169,  1.999169,  2.127789 )     0.69755720
  WF centre and spread    4  (  0.000000,  1.999169,  0.166317 )     0.63815347
  WF centre and spread    5  (  0.000000,  1.999169,  0.144370 )     1.16288921
  WF centre and spread    6  ( -0.000000,  1.999169,  0.148838 )     1.18156698
  WF centre and spread    7  ( -0.000000,  1.999169,  0.148477 )     1.27728632
  WF centre and spread    8  ( -0.000000, -0.000000,  2.222836 )     0.64653308
  WF centre and spread    9  ( -0.000000,  0.000000,  2.305470 )     1.21673202
  WF centre and spread   10  (  0.000000,  0.000000,  2.358470 )     1.14469448
  WF centre and spread   11  (  0.000000,  0.000000,  2.357977 )     1.14510280
  WF centre and spread   12  (  1.999169,  0.000000,  0.166272 )     0.63801018
  WF centre and spread   13  (  1.999169, -0.000000,  0.143683 )     1.16335146
  WF centre and spread   14  (  1.999169, -0.000000,  0.148050 )     1.27730350
  WF centre and spread   15  (  1.999169,  0.000000,  0.148709 )     1.18078394
  Sum of centres and spreads ( 13.994186, 13.994186, 16.841388 )    14.76529004
 
     91     0.377E-04     0.0583648084       14.7652900358       0.53  <-- CONV
        O_D=      0.0633822 O_OD=      2.9595920 O_TOT=     14.7652900 <-- SPRD
 Delta: O_D=  0.9308634E-05 O_OD=  0.2839640E-04 O_TOT=  0.3770503E-04 <-- DLTA
 ------------------------------------------------------------------------------
 Cycle:     92
  WF centre and spread    1  (  1.999169,  1.999169,  2.126488 )     0.69736429
  WF centre and spread    2  (  1.999169,  1.999169,  2.127637 )     0.69802819
  WF centre and spread    3  (  1.999169,  1.999169,  2.127787 )     0.69758269
  WF centre and spread    4  (  0.000000,  1.999169,  0.166323 )     0.63815401
  WF centre and spread    5  (  0.000000,  1.999169,  0.144368 )     1.16288732
  WF centre and spread    6  ( -0.000000,  1.999169,  0.148837 )     1.18156407
  WF centre and spread    7  ( -0.000000,  1.999169,  0.148476 )     1.27728691
  WF centre and spread    8  ( -0.000000, -0.000000,  2.222807 )     0.64652794
  WF centre and spread    9  ( -0.000000,  0.000000,  2.305502 )     1.21673365
  WF centre and spread   10  (  0.000000,  0.000000,  2.358472 )     1.14469134
  WF centre and spread   11  (  0.000000,  0.000000,  2.357979 )     1.14510068
  WF centre and spread   12  (  1.999169,  0.000000,  0.166278 )     0.63800989
  WF centre and spread   13  (  1.999169, -0.000000,  0.143679 )     1.16334991
  WF centre and spread   14  (  1.999169, -0.000000,  0.148049 )     1.27730439
  WF centre and spread   15  (  1.999169,  0.000000,  0.148709 )     1.18078014
  Sum of centres and spreads ( 13.994186, 13.994186, 16.841392 )    14.76536543
 
     92     0.754E-04     0.0584138513       14.7653654297       0.53  <-- CONV
        O_D=      0.0634009 O_OD=      2.9596487 O_TOT=     14.7653654 <-- SPRD
 Delta: O_D=  0.1870226E-04 O_OD=  0.5669168E-04 O_TOT=  0.7539393E-04 <-- DLTA
 ------------------------------------------------------------------------------
 Cycle:     93
  WF centre and spread    1  (  1.999169,  1.999169,  2.126486 )     0.69741924
  WF centre and spread    2  (  1.999169,  1.999169,  2.127632 )     0.69807390
  WF centre and spread    3  (  1.999169,  1.999169,  2.127784 )     0.69762082
  WF centre and spread    4  (  0.000000,  1.999169,  0.166332 )     0.63815483
  WF centre and spread    5  (  0.000000,  1.999169,  0.144364 )     1.16288461
  WF centre and spread    6  ( -0.000000,  1.999169,  0.148837 )     1.18155973
  WF centre and spread    7  ( -0.000000,  1.999169,  0.148476 )     1.27728779
  WF centre and spread    8  ( -0.000000, -0.000000,  2.222765 )     0.64652028
  WF centre and spread    9  ( -0.000000,  0.000000,  2.305550 )     1.21673608
  WF centre and spread   10  (  0.000000,  0.000000,  2.358475 )     1.14468668
  WF centre and spread   11  (  0.000000,  0.000000,  2.357982 )     1.14509751
  WF centre and spread   12  (  1.999169,  0.000000,  0.166287 )     0.63800947
  WF centre and spread   13  (  1.999169, -0.000000,  0.143671 )     1.16334768
  WF centre and spread   14  (  1.999169, -0.000000,  0.148048 )     1.27730574
  WF centre and spread   15  (  1.999169,  0.000000,  0.148708 )     1.18077448
  Sum of centres and spreads ( 13.994186, 13.994186, 16.841398 )    14.76547883
 
     93     0.113E-03     0.0585129812       14.7654788305       0.54  <-- CONV
        O_D=      0.0634292 O_OD=      2.9597337 O_TOT=     14.7654788 <-- SPRD
 Delta: O_D=  0.2835208E-04 O_OD=  0.8504868E-04 O_TOT=  0.1134008E-03 <-- DLTA
 ------------------------------------------------------------------------------
 Cycle:     94
  WF centre and spread    1  (  1.999169,  1.999169,  2.126483 )     0.69749297
  WF centre and spread    2  (  1.999169,  1.999169,  2.127625 )     0.69813475
  WF centre and spread    3  (  1.999169,  1.999169,  2.127779 )     0.69767152
  WF centre and spread    4  (  0.000000,  1.999169,  0.166345 )     0.63815594
  WF centre and spread    5  (  0.000000,  1.999169,  0.144358 )     1.16288120
  WF centre and spread    6  ( -0.000000,  1.999169,  0.148837 )     1.18155399
  WF centre and spread    7  ( -0.000000,  1.999169,  0.148475 )     1.27728897
  WF centre and spread    8  ( -0.000000, -0.000000,  2.222708 )     0.64651011
  WF centre and spread    9  ( -0.000000,  0.000000,  2.305613 )     1.21673930
  WF centre and spread   10  (  0.000000,  0.000000,  2.358480 )     1.14468052
  WF centre and spread   11  (  0.000000,  0.000000,  2.357985 )     1.14509335
  WF centre and spread   12  (  1.999169,  0.000000,  0.166299 )     0.63800892
  WF centre and spread   13  (  1.999169, -0.000000,  0.143662 )     1.16334485
  WF centre and spread   14  (  1.999169, -0.000000,  0.148047 )     1.27730752
  WF centre and spread   15  (  1.999169,  0.000000,  0.148708 )     1.18076699
  Sum of centres and spreads ( 13.994186, 13.994186, 16.841405 )    14.76563090
 
     94     0.152E-03     0.0586647062       14.7656309009       0.54  <-- CONV
        O_D=      0.0634677 O_OD=      2.9598473 O_TOT=     14.7656309 <-- SPRD
 Delta: O_D=  0.3843401E-04 O_OD=  0.1136363E-03 O_TOT=  0.1520704E-03 <-- DLTA
 ------------------------------------------------------------------------------
 Cycle:     95
  WF centre and spread    1  (  1.999169,  1.999169,  2.126479 )     0.69758603
  WF centre and spread    2  (  1.999169,  1.999169,  2.127617 )     0.69821079
  WF centre and spread    3  (  1.999169,  1.999169,  2.127774 )     0.69773478
  WF centre and spread    4  (  0.000000,  1.999169,  0.166360 )     0.63815736
  WF centre and spread    5  (  0.000000,  1.999169,  0.144352 )     1.16287728
  WF centre and spread    6  ( -0.000000,  1.999169,  0.148836 )     1.18154689
  WF centre and spread    7  ( -0.000000,  1.999169,  0.148474 )     1.27729044
  WF centre and spread    8  ( -0.000000, -0.000000,  2.222638 )     0.64649744
  WF centre and spread    9  ( -0.000000,  0.000000,  2.305692 )     1.21674330
  WF centre and spread   10  (  0.000000,  0.000000,  2.358486 )     1.14467290
  WF centre and spread   11  (  0.000000,  0.000000,  2.357990 )     1.14508820
  WF centre and spread   12  (  1.999169,  0.000000,  0.166314 )     0.63800827
  WF centre and spread   13  (  1.999169, -0.000000,  0.143650 )     1.16334154
  WF centre and spread   14  (  1.999169, -0.000000,  0.148045 )     1.27730974
  WF centre and spread   15  (  1.999169,  0.000000,  0.148707 )     1.18075771
  Sum of centres and spreads ( 13.994186, 13.994186, 16.841414 )    14.76582267
 
     95     0.192E-03     0.0588729710       14.7658226722       0.55  <-- CONV
        O_D=      0.0635168 O_OD=      2.9599900 O_TOT=     14.7658227 <-- SPRD
 Delta: O_D=  0.4913454E-04 O_OD=  0.1426369E-03 O_TOT=  0.1917714E-03 <-- DLTA
 ------------------------------------------------------------------------------
 Cycle:     96
  WF centre and spread    1  (  1.999169,  1.999169,  2.126474 )     0.69769918
  WF centre and spread    2  (  1.999169,  1.999169,  2.127607 )     0.69830211
  WF centre and spread    3  (  1.999169,  1.999169,  2.127767 )     0.69781065
  WF centre and spread    4  (  0.000000,  1.999169,  0.166379 )     0.63815912
  WF centre and spread    5  (  0.000000,  1.999169,  0.144344 )     1.16287305
  WF centre and spread    6  ( -0.000000,  1.999169,  0.148835 )     1.18153844
  WF centre and spread    7  ( -0.000000,  1.999169,  0.148473 )     1.27729220
  WF centre and spread    8  ( -0.000000, -0.000000,  2.222554 )     0.64648229
  WF centre and spread    9  ( -0.000000,  0.000000,  2.305787 )     1.21674806
  WF centre and spread   10  (  0.000000,  0.000000,  2.358493 )     1.14466387
  WF centre and spread   11  (  0.000000,  0.000000,  2.357996 )     1.14508211
  WF centre and spread   12  (  1.999169,  0.000000,  0.166332 )     0.63800753
  WF centre and spread   13  (  1.999169, -0.000000,  0.143637 )     1.16333790
  WF centre and spread   14  (  1.999169, -0.000000,  0.148043 )     1.27731239
  WF centre and spread   15  (  1.999169,  0.000000,  0.148706 )     1.18074668
  Sum of centres and spreads ( 13.994186, 13.994186, 16.841425 )    14.76605558
 
     96     0.233E-03     0.0591431454       14.7660555823       0.55  <-- CONV
        O_D=      0.0635775 O_OD=      2.9601622 O_TOT=     14.7660556 <-- SPRD
 Delta: O_D=  0.6065708E-04 O_OD=  0.1722530E-03 O_TOT=  0.2329101E-03 <-- DLTA
 ------------------------------------------------------------------------------
 Cycle:     97
  WF centre and spread    1  (  1.999169,  1.999169,  2.126473 )     0.69771869
  WF centre and spread    2  (  1.999169,  1.999169,  2.127605 )     0.69831729
  WF centre and spread    3  (  1.999169,  1.999169,  2.127766 )     0.69782317
  WF centre and spread    4  (  0.000000,  1.999169,  0.166382 )     0.63815945
  WF centre and spread    5  (  0.000000,  1.999169,  0.144343 )     1.16287242
  WF centre and spread    6  ( -0.000000,  1.999169,  0.148835 )     1.18153709
  WF centre and spread    7  ( -0.000000,  1.999169,  0.148473 )     1.27729248
  WF centre and spread    8  ( -0.000000, -0.000000,  2.222539 )     0.64647975
  WF centre and spread    9  ( -0.000000,  0.000000,  2.305802 )     1.21674883
  WF centre and spread   10  (  0.000000,  0.000000,  2.358494 )     1.14466243
  WF centre and spread   11  (  0.000000,  0.000000,  2.357997 )     1.14508115
  WF centre and spread   12  (  1.999169,  0.000000,  0.166335 )     0.63800742
  WF centre and spread   13  (  1.999169, -0.000000,  0.143634 )     1.16333733
  WF centre and spread   14  (  1.999169, -0.000000,  0.148043 )     1.27731281
  WF centre and spread   15  (  1.999169,  0.000000,  0.148706 )     1.18074491
  Sum of centres and spreads ( 13.994186, 13.994186, 16.841427 )    14.76609522
 
     97     0.396E-04     0.0594820309       14.7660952158       0.56  <-- CONV
        O_D=      0.0635884 O_OD=      2.9601909 O_TOT=     14.7660952 <-- SPRD
 Delta: O_D=  0.1095078E-04 O_OD=  0.2868271E-04 O_TOT=  0.3963349E-04 <-- DLTA
 ------------------------------------------------------------------------------
 Cycle:     98
  WF centre and spread    1  (  1.999169,  1.999169,  2.126471 )     0.69775775
  WF centre and spread    2  (  1.999169,  1.999169,  2.127602 )     0.69834756
  WF centre and spread    3  (  1.999169,  1.999169,  2.127764 )     0.69784813
  WF centre and spread    4  (  0.000000,  1.999169,  0.166388 )     0.63816010
  WF centre and spread    5  (  0.000000,  1.999169,  0.144340 )     1.16287120
  WF centre and spread    6  ( -0.000000,  1.999169,  0.148835 )     1.18153439
  WF centre and spread    7  ( -0.000000,  1.999169,  0.148472 )     1.27729303
  WF centre and spread    8  ( -0.000000, -0.000000,  2.222511 )     0.64647469
  WF centre and spread    9  ( -0.000000,  0.000000,  2.305834 )     1.21675035
  WF centre and spread   10  (  0.000000,  0.000000,  2.358496 )     1.14465957
  WF centre and spread   11  (  0.000000,  0.000000,  2.357998 )     1.14507923
  WF centre and spread   12  (  1.999169,  0.000000,  0.166341 )     0.63800723
  WF centre and spread   13  (  1.999169, -0.000000,  0.143630 )     1.16333623
  WF centre and spread   14  (  1.999169, -0.000000,  0.148043 )     1.27731365
  WF centre and spread   15  (  1.999169,  0.000000,  0.148705 )     1.18074138
  Sum of centres and spreads ( 13.994186, 13.994186, 16.841431 )    14.76617450
 
     98     0.793E-04     0.0595461795       14.7661744964       0.56  <-- CONV
        O_D=      0.0636104 O_OD=      2.9602482 O_TOT=     14.7661745 <-- SPRD
 Delta: O_D=  0.2200628E-04 O_OD=  0.5727434E-04 O_TOT=  0.7928062E-04 <-- DLTA
 ------------------------------------------------------------------------------
 Cycle:     99
  WF centre and spread    1  (  1.999169,  1.999169,  2.126469 )     0.69781660
  WF centre and spread    2  (  1.999169,  1.999169,  2.127596 )     0.69839288
  WF centre and spread    3  (  1.999169,  1.999169,  2.127760 )     0.69788547
  WF centre and spread    4  (  0.000000,  1.999169,  0.166397 )     0.63816110
  WF centre and spread    5  (  0.000000,  1.999169,  0.144337 )     1.16286949
  WF centre and spread    6  ( -0.000000,  1.999169,  0.148835 )     1.18153038
  WF centre and spread    7  ( -0.000000,  1.999169,  0.148472 )     1.27729386
  WF centre and spread    8  ( -0.000000, -0.000000,  2.222469 )     0.64646713
  WF centre and spread    9  ( -0.000000,  0.000000,  2.305881 )     1.21675263
  WF centre and spread   10  (  0.000000,  0.000000,  2.358499 )     1.14465532
  WF centre and spread   11  (  0.000000,  0.000000,  2.358001 )     1.14507639
  WF centre and spread   12  (  1.999169,  0.000000,  0.166350 )     0.63800694
  WF centre and spread   13  (  1.999169, -0.000000,  0.143623 )     1.16333464
  WF centre and spread   14  (  1.999169, -0.000000,  0.148042 )     1.27731490
  WF centre and spread   15  (  1.999169,  0.000000,  0.148705 )     1.18073612
  Sum of centres and spreads ( 13.994186, 13.994186, 16.841436 )    14.76629385
 
     99     0.119E-03     0.0596754577       14.7662938480       0.57  <-- CONV
        O_D=      0.0636438 O_OD=      2.9603342 O_TOT=     14.7662938 <-- SPRD
 Delta: O_D=  0.3338087E-04 O_OD=  0.8597075E-04 O_TOT=  0.1193516E-03 <-- DLTA
 ------------------------------------------------------------------------------
 Cycle:    100
  WF centre and spread    1  (  1.999169,  1.999169,  2.126465 )     0.69789574
  WF centre and spread    2  (  1.999169,  1.999169,  2.127590 )     0.69845331
  WF centre and spread    3  (  1.999169,  1.999169,  2.127756 )     0.69793521
  WF centre and spread    4  (  0.000000,  1.999169,  0.166409 )     0.63816244
  WF centre and spread    5  (  0.000000,  1.999169,  0.144332 )     1.16286739
  WF centre and spread    6  ( -0.000000,  1.999169,  0.148834 )     1.18152506
  WF centre and spread    7  ( -0.000000,  1.999169,  0.148471 )     1.27729496
  WF centre and spread    8  ( -0.000000, -0.000000,  2.222413 )     0.64645708
  WF centre and spread    9  ( -0.000000,  0.000000,  2.305943 )     1.21675565
  WF centre and spread   10  (  0.000000,  0.000000,  2.358504 )     1.14464969
  WF centre and spread   11  (  0.000000,  0.000000,  2.358005 )     1.14507263
  WF centre and spread   12  (  1.999169,  0.000000,  0.166362 )     0.63800657
  WF centre and spread   13  (  1.999169, -0.000000,  0.143614 )     1.16333266
  WF centre and spread   14  (  1.999169, -0.000000,  0.148040 )     1.27731657
  WF centre and spread   15  (  1.999169,  0.000000,  0.148704 )     1.18072916
  Sum of centres and spreads ( 13.994186, 13.994186, 16.841443 )    14.76645412
 
    100     0.160E-03     0.0598724365       14.7664541180       0.57  <-- CONV
        O_D=      0.0636891 O_OD=      2.9604491 O_TOT=     14.7664541 <-- SPRD
 Delta: O_D=  0.4529571E-04 O_OD=  0.1149743E-03 O_TOT=  0.1602700E-03 <-- DLTA
 ------------------------------------------------------------------------------
 Final State
  WF centre and spread    1  (  1.999169,  1.999169,  2.126465 )     0.69789574
  WF centre and spread    2  (  1.999169,  1.999169,  2.127590 )     0.69845331
  WF centre and spread    3  (  1.999169,  1.999169,  2.127756 )     0.69793521
  WF centre and spread    4  (  0.000000,  1.999169,  0.166409 )     0.63816244
  WF centre and spread    5  (  0.000000,  1.999169,  0.144332 )     1.16286739
  WF centre and spread    6  ( -0.000000,  1.999169,  0.148834 )     1.18152506
  WF centre and spread    7  ( -0.000000,  1.999169,  0.148471 )     1.27729496
  WF centre and spread    8  ( -0.000000, -0.000000,  2.222413 )     0.64645708
  WF centre and spread    9  ( -0.000000,  0.000000,  2.305943 )     1.21675565
  WF centre and spread   10  (  0.000000,  0.000000,  2.358504 )     1.14464969
  WF centre and spread   11  (  0.000000,  0.000000,  2.358005 )     1.14507263
  WF centre and spread   12  (  1.999169,  0.000000,  0.166362 )     0.63800657
  WF centre and spread   13  (  1.999169, -0.000000,  0.143614 )     1.16333266
  WF centre and spread   14  (  1.999169, -0.000000,  0.148040 )     1.27731657
  WF centre and spread   15  (  1.999169,  0.000000,  0.148704 )     1.18072916
  Sum of centres and spreads ( 13.994186, 13.994186, 16.841443 )    14.76645412
 
         Spreads (Ang^2)       Omega I      =    11.742315886
        ================       Omega D      =     0.063689092
                               Omega OD     =     2.960449140
    Final Spread (Ang^2)       Omega Total  =    14.766454118
 ------------------------------------------------------------------------------

 Writing checkpoint file knbo3.chk... done


 *===========================================================================*
 |                             TIMING INFORMATION                            |
 *===========================================================================*
 |    Tag                                                Ncalls      Time (s)|
 |---------------------------------------------------------------------------|
 |kmesh: get                                        :         1         0.017|
 |overlap: read                                     :         1         0.055|
 |wann: main                                        :         1         0.549|
 |plot: main                                        :         1         0.000|
 *---------------------------------------------------------------------------*
