 
             +---------------------------------------------------+
             |                                                   |
             |                   WANNIER90                       |
             |                                                   |
             +---------------------------------------------------+
             |                                                   |
             |        Welcome to the Maximally-Localized         |
             |        Generalized Wannier Functions code         |
             |            http://www.wannier.org                 |
             |                                                   |
             |                                                   |
             |  Wannier90 Developer Group:                       |
             |    Giovanni Pizzi    (Paul Scherrer Institute)    |
             |    Valerio Vitale    (University of Trieste)      |
             |    David Vanderbilt  (Rutgers University)         |
             |    Nicola Marzari    (EPFL)                       |
             |    Ivo Souza         (Universidad del Pais Vasco) |
             |    Arash A. Mostofi  (Imperial College London)    |
             |    Jonathan R. Yates (University of Oxford)       |
             |                                                   |
             |  For the full list of Wannier90 3.x authors,      |
             |  please check the code documentation and the      |
             |  README on the GitHub page of the code            |
             |                                                   |
             |                                                   |
             |  Please cite                                      |
             |                                                   |
             |  [ref] "Wannier90 as a community code:            |
             |        new features and applications",            |
             |        G. Pizzi et al., J. Phys. Cond. Matt. 32,  |
             |        165902 (2020).                             |
             |        http://doi.org/10.1088/1361-648X/ab51ff    |
             |                                                   |
             |  in any publications arising from the use of      |
             |  this code. For the method please cite            |
             |                                                   |
             |  [ref] "Maximally Localized Generalised Wannier   |
             |         Functions for Composite Energy Bands"     |
             |         N. Marzari and D. Vanderbilt              |
             |         Phys. Rev. B 56 12847 (1997)              |
             |                                                   |
             |  [ref] "Maximally Localized Wannier Functions     |
             |         for Entangled Energy Bands"               |
             |         I. Souza, N. Marzari and D. Vanderbilt    |
             |         Phys. Rev. B 65 035109 (2001)             |
             |                                                   |
             |                                                   |
             | Copyright (c) 1996-2020                           |
             |        The Wannier90 Developer Group and          |
             |        individual contributors                    |
             |                                                   |
             |      Release: 3.1.0        5th March    2020      |
             |                                                   |
             | This program is free software; you can            |
             | redistribute it and/or modify it under the terms  |
             | of the GNU General Public License as published by |
             | the Free Software Foundation; either version 2 of |
             | the License, or (at your option) any later version|
             |                                                   |
             | This program is distributed in the hope that it   |
             | will be useful, but WITHOUT ANY WARRANTY; without |
             | even the implied warranty of MERCHANTABILITY or   |
             | FITNESS FOR A PARTICULAR PURPOSE. See the GNU     |
             | General Public License for more details.          |
             |                                                   |
             | You should have received a copy of the GNU General|
             | Public License along with this program; if not,   |
             | write to the Free Software Foundation, Inc.,      |
             | 675 Mass Ave, Cambridge, MA 02139, USA.           |
             |                                                   |
             +---------------------------------------------------+
             |    Execution started on 13Apr2024 at 08:13:29     |
             +---------------------------------------------------+
 
 ******************************************************************************
 * -> Using CODATA 2006 constant values                                       *
 *    (http://physics.nist.gov/cuu/Constants/index.html)                      *
 * -> Using Bohr value from CODATA                                            *
 ******************************************************************************
 

 Running in serial (with parallel executable)
 
                                    ------
                                    SYSTEM
                                    ------
 
                            Lattice Vectors (Bohr)
                    a_1    -5.100000   0.000000   5.100000
                    a_2     0.000000   5.100000   5.100000
                    a_3    -5.100000   5.100000   0.000000
 
                   Unit Cell Volume:     265.30200  (Bohr^3)
 
                      Reciprocal-Space Vectors (Bohr^-1)
                    b_1    -0.615999  -0.615999   0.615999
                    b_2     0.615999   0.615999   0.615999
                    b_3    -0.615999   0.615999  -0.615999
  
 *----------------------------------------------------------------------------*
 |   Site       Fractional Coordinate          Cartesian Coordinate (Bohr)    |
 +----------------------------------------------------------------------------+
 | si   1  -0.25000   0.75000  -0.25000   |    2.55000   2.55000   2.55000    |
 | si   2   0.00000   0.00000   0.00000   |    0.00000   0.00000   0.00000    |
 *----------------------------------------------------------------------------*
                                -----------
                                PROJECTIONS
                                -----------
  
 +----------------------------------------------------------------------------+
 |     Frac. Coord.   l mr  r        z-axis               x-axis          Z/a |
 +----------------------------------------------------------------------------+
 | -0.12 -0.12  0.38  0  1  1  0.000  0.000  1.000  1.000  0.000  0.000   1.0 |
 |  0.38 -0.12 -0.12  0  1  1  0.000  0.000  1.000  1.000  0.000  0.000   1.0 |
 | -0.12  0.38 -0.12  0  1  1  0.000  0.000  1.000  1.000  0.000  0.000   1.0 |
 | -0.12 -0.12 -0.12  0  1  1  0.000  0.000  1.000  1.000  0.000  0.000   1.0 |
 | -0.25  0.75 -0.25 -3  1  1  0.000  0.000  1.000  1.000  0.000  0.000   1.0 |
 | -0.25  0.75 -0.25 -3  2  1  0.000  0.000  1.000  1.000  0.000  0.000   1.0 |
 | -0.25  0.75 -0.25 -3  3  1  0.000  0.000  1.000  1.000  0.000  0.000   1.0 |
 | -0.25  0.75 -0.25 -3  4  1  0.000  0.000  1.000  1.000  0.000  0.000   1.0 |
 |  0.00  0.00  0.00 -3  1  1  0.000  0.000  1.000  1.000  0.000  0.000   1.0 |
 |  0.00  0.00  0.00 -3  2  1  0.000  0.000  1.000  1.000  0.000  0.000   1.0 |
 |  0.00  0.00  0.00 -3  3  1  0.000  0.000  1.000  1.000  0.000  0.000   1.0 |
 |  0.00  0.00  0.00 -3  4  1  0.000  0.000  1.000  1.000  0.000  0.000   1.0 |
 +----------------------------------------------------------------------------+
  
                              --------------------
                              SELECTED PROJECTIONS
                              --------------------
  
 +----------------------------------------------------------------------------+
 |     Frac. Coord.   l mr  r        z-axis               x-axis          Z/a |
 +----------------------------------------------------------------------------+
 |  0.00  0.00  0.00 -3  1  1  0.000  0.000  1.000  1.000  0.000  0.000   1.0 |
 |  0.00  0.00  0.00 -3  2  1  0.000  0.000  1.000  1.000  0.000  0.000   1.0 |
 |  0.00  0.00  0.00 -3  3  1  0.000  0.000  1.000  1.000  0.000  0.000   1.0 |
 |  0.00  0.00  0.00 -3  4  1  0.000  0.000  1.000  1.000  0.000  0.000   1.0 |
 +----------------------------------------------------------------------------+
  
                                ------------
                                K-POINT GRID
                                ------------
  
             Grid size =  4 x  4 x  4      Total points =   64
  
 *----------------------------------------------------------------------------*
 | k-point      Fractional Coordinate        Cartesian Coordinate (Bohr^-1)   |
 +----------------------------------------------------------------------------+
 |     1    0.00000   0.00000   0.00000   |    0.00000   0.00000   0.00000    |
 |     2    0.00000   0.00000   0.25000   |   -0.15400   0.15400  -0.15400    |
 |     3    0.00000   0.00000   0.50000   |   -0.30800   0.30800  -0.30800    |
 |     4    0.00000   0.00000   0.75000   |   -0.46200   0.46200  -0.46200    |
 |     5    0.00000   0.25000   0.00000   |    0.15400   0.15400   0.15400    |
 |     6    0.00000   0.25000   0.25000   |    0.00000   0.30800   0.00000    |
 |     7    0.00000   0.25000   0.50000   |   -0.15400   0.46200  -0.15400    |
 |     8    0.00000   0.25000   0.75000   |   -0.30800   0.61600  -0.30800    |
 |     9    0.00000   0.50000   0.00000   |    0.30800   0.30800   0.30800    |
 |    10    0.00000   0.50000   0.25000   |    0.15400   0.46200   0.15400    |
 |    11    0.00000   0.50000   0.50000   |    0.00000   0.61600   0.00000    |
 |    12    0.00000   0.50000   0.75000   |   -0.15400   0.77000  -0.15400    |
 |    13    0.00000   0.75000   0.00000   |    0.46200   0.46200   0.46200    |
 |    14    0.00000   0.75000   0.25000   |    0.30800   0.61600   0.30800    |
 |    15    0.00000   0.75000   0.50000   |    0.15400   0.77000   0.15400    |
 |    16    0.00000   0.75000   0.75000   |    0.00000   0.92400   0.00000    |
 |    17    0.25000   0.00000   0.00000   |   -0.15400  -0.15400   0.15400    |
 |    18    0.25000   0.00000   0.25000   |   -0.30800   0.00000   0.00000    |
 |    19    0.25000   0.00000   0.50000   |   -0.46200   0.15400  -0.15400    |
 |    20    0.25000   0.00000   0.75000   |   -0.61600   0.30800  -0.30800    |
 |    21    0.25000   0.25000   0.00000   |    0.00000   0.00000   0.30800    |
 |    22    0.25000   0.25000   0.25000   |   -0.15400   0.15400   0.15400    |
 |    23    0.25000   0.25000   0.50000   |   -0.30800   0.30800   0.00000    |
 |    24    0.25000   0.25000   0.75000   |   -0.46200   0.46200  -0.15400    |
 |    25    0.25000   0.50000   0.00000   |    0.15400   0.15400   0.46200    |
 |    26    0.25000   0.50000   0.25000   |    0.00000   0.30800   0.30800    |
 |    27    0.25000   0.50000   0.50000   |   -0.15400   0.46200   0.15400    |
 |    28    0.25000   0.50000   0.75000   |   -0.30800   0.61600   0.00000    |
 |    29    0.25000   0.75000   0.00000   |    0.30800   0.30800   0.61600    |
 |    30    0.25000   0.75000   0.25000   |    0.15400   0.46200   0.46200    |
 |    31    0.25000   0.75000   0.50000   |   -0.00000   0.61600   0.30800    |
 |    32    0.25000   0.75000   0.75000   |   -0.15400   0.77000   0.15400    |
 |    33    0.50000   0.00000   0.00000   |   -0.30800  -0.30800   0.30800    |
 |    34    0.50000   0.00000   0.25000   |   -0.46200  -0.15400   0.15400    |
 |    35    0.50000   0.00000   0.50000   |   -0.61600   0.00000   0.00000    |
 |    36    0.50000   0.00000   0.75000   |   -0.77000   0.15400  -0.15400    |
 |    37    0.50000   0.25000   0.00000   |   -0.15400  -0.15400   0.46200    |
 |    38    0.50000   0.25000   0.25000   |   -0.30800   0.00000   0.30800    |
 |    39    0.50000   0.25000   0.50000   |   -0.46200   0.15400   0.15400    |
 |    40    0.50000   0.25000   0.75000   |   -0.61600   0.30800   0.00000    |
 |    41    0.50000   0.50000   0.00000   |    0.00000   0.00000   0.61600    |
 |    42    0.50000   0.50000   0.25000   |   -0.15400   0.15400   0.46200    |
 |    43    0.50000   0.50000   0.50000   |   -0.30800   0.30800   0.30800    |
 |    44    0.50000   0.50000   0.75000   |   -0.46200   0.46200   0.15400    |
 |    45    0.50000   0.75000   0.00000   |    0.15400   0.15400   0.77000    |
 |    46    0.50000   0.75000   0.25000   |   -0.00000   0.30800   0.61600    |
 |    47    0.50000   0.75000   0.50000   |   -0.15400   0.46200   0.46200    |
 |    48    0.50000   0.75000   0.75000   |   -0.30800   0.61600   0.30800    |
 |    49    0.75000   0.00000   0.00000   |   -0.46200  -0.46200   0.46200    |
 |    50    0.75000   0.00000   0.25000   |   -0.61600  -0.30800   0.30800    |
 |    51    0.75000   0.00000   0.50000   |   -0.77000  -0.15400   0.15400    |
 |    52    0.75000   0.00000   0.75000   |   -0.92400   0.00000   0.00000    |
 |    53    0.75000   0.25000   0.00000   |   -0.30800  -0.30800   0.61600    |
 |    54    0.75000   0.25000   0.25000   |   -0.46200  -0.15400   0.46200    |
 |    55    0.75000   0.25000   0.50000   |   -0.61600   0.00000   0.30800    |
 |    56    0.75000   0.25000   0.75000   |   -0.77000   0.15400   0.15400    |
 |    57    0.75000   0.50000   0.00000   |   -0.15400  -0.15400   0.77000    |
 |    58    0.75000   0.50000   0.25000   |   -0.30800   0.00000   0.61600    |
 |    59    0.75000   0.50000   0.50000   |   -0.46200   0.15400   0.46200    |
 |    60    0.75000   0.50000   0.75000   |   -0.61600   0.30800   0.30800    |
 |    61    0.75000   0.75000   0.00000   |    0.00000   0.00000   0.92400    |
 |    62    0.75000   0.75000   0.25000   |   -0.15400   0.15400   0.77000    |
 |    63    0.75000   0.75000   0.50000   |   -0.30800   0.30800   0.61600    |
 |    64    0.75000   0.75000   0.75000   |   -0.46200   0.46200   0.46200    |
 *----------------------------------------------------------------------------*
  
  
 *---------------------------------- MAIN ------------------------------------*
 |  Number of Wannier Functions               :                 8             |
 |  Number of Objective Wannier Functions     :                 8             |
 |  Number of input Bloch states              :                12             |
 |  Output verbosity (1=low, 5=high)          :                 2             |
 |  Timing Level (1=low, 5=high)              :                 1             |
 |  Optimisation (0=memory, 3=speed)          :                 3             |
 |  Length Unit                               :              Bohr             |
 |  Post-processing setup (write *.nnkp)      :                 F             |
 |  Using Gamma-only branch of algorithms     :                 F             |
 *----------------------------------------------------------------------------*
 *------------------------------- WANNIERISE ---------------------------------*
 |  Total number of iterations                :               100             |
 |  Number of CG steps before reset           :                 5             |
 |  Trial step length for line search         :             2.000             |
 |  Convergence tolerence                     :         0.100E-09             |
 |  Convergence window                        :                -1             |
 |  Iterations between writing output         :                10             |
 |  Iterations between backing up to disk     :                10             |
 |  Write r^2_nm to file                      :                 F             |
 |  Write xyz WF centres to file              :                 F             |
 |  Write on-site energies <0n|H|0n> to file  :                 F             |
 |  Use guiding centre to control phases      :                 F             |
 |  Use phases for initial projections        :                 F             |
 *----------------------------------------------------------------------------*
 *------------------------------- DISENTANGLE --------------------------------*
 |  Using band disentanglement                :                 T             |
 |  Total number of iterations                :               100             |
 |  Mixing ratio                              :             0.500             |
 |  Convergence tolerence                     :         1.000E-10             |
 |  Convergence window                        :                 3             |
 *----------------------------------------------------------------------------*

 *---------------------------------- K-MESH ----------------------------------*
 +----------------------------------------------------------------------------+
 |                    Distance to Nearest-Neighbour Shells                    |
 |                    ------------------------------------                    |
 |          Shell             Distance (Bohr^-1)         Multiplicity         |
 |          -----             ------------------         ------------         |
 |             1                   0.266735                      8            |
 |             2                   0.307999                      6            |
 |             3                   0.435577                     12            |
 |             4                   0.510759                     24            |
 |             5                   0.533470                      8            |
 |             6                   0.615999                      6            |
 |             7                   0.671269                     24            |
 |             8                   0.688707                     24            |
 |             9                   0.754441                     24            |
 |            10                   0.800206                     32            |
 |            11                   0.871154                     12            |
 |            12                   0.911074                     48            |
 +----------------------------------------------------------------------------+
 | The b-vectors are chosen automatically                                     |
 | Shell:  1 w_b    5.2707280     (Bohr^2)                                    |
 | The following shells are used:   1                                         |
 +----------------------------------------------------------------------------+
 |                        Shell   # Nearest-Neighbours                        |
 |                        -----   --------------------                        |
 |                          1               8                                 |
 +----------------------------------------------------------------------------+
 | Completeness relation is fully satisfied [Eq. (B1), PRB 56, 12847 (1997)]  |
 +----------------------------------------------------------------------------+
 |                 b_k Vectors (Bohr^-1) and Weights (Bohr^2)                 |
 |                 ------------------------------------------                 |
 |            No.         b_k(x)      b_k(y)      b_k(z)        w_b           |
 |            ---        --------------------------------     --------        |
 |             1        -0.154000    0.154000   -0.154000     5.270728        |
 |             2         0.154000    0.154000    0.154000     5.270728        |
 |             3        -0.154000   -0.154000    0.154000     5.270728        |
 |             4        -0.154000    0.154000    0.154000     5.270728        |
 |             5         0.154000   -0.154000    0.154000     5.270728        |
 |             6        -0.154000   -0.154000   -0.154000     5.270728        |
 |             7         0.154000    0.154000   -0.154000     5.270728        |
 |             8         0.154000   -0.154000   -0.154000     5.270728        |
 +----------------------------------------------------------------------------+
 |                           b_k Directions (Bohr^-1)                         |
 |                           ------------------------                         |
 |            No.           x           y           z                         |
 |            ---        --------------------------------                     |
 |             1        -0.154000    0.154000   -0.154000                     |
 |             2         0.154000    0.154000    0.154000                     |
 |             3        -0.154000   -0.154000    0.154000                     |
 |             4        -0.154000    0.154000    0.154000                     |
 +----------------------------------------------------------------------------+
  
 Starting a new Wannier90 calculation ...


 Reading overlaps from silicon.mmn    :  Created on 13Oct2018 at 15: 7:41

 Reading projections from silicon.amn :  Created on 13Oct2018 at 15: 7:15

 *------------------------------- DISENTANGLE --------------------------------*
 +----------------------------------------------------------------------------+
 |                              Energy  Windows                               |
 |                              ---------------                               |
 |                   Outer:   -5.69829  to   17.00000  (eV)                   |
 |                   Inner:   -5.69829  to    6.50000  (eV)                   |
 +----------------------------------------------------------------------------+
 |                        K-points with Frozen States                         |
 |                        ---------------------------                         |
 |     1     2     3     4     5     6     7     8     9    10    11    12    |
 |    13    14    15    16    17    18    19    20    21    22    23    24    |
 |    25    26    27    28    29    30    31    32    33    34    35    36    |
 |    37    38    39    40    41    42    43    44    45    46    47    48    |
 |    49    50    51    52    53    54    55    56    57    58    59    60    |
 |    61    62    63    64                                                    |
 +----------------------------------------------------------------------------+
   Number of target bands to extract:    8
 +----------------------------------------------------------------------------+
 |                                  Windows                                   |
 |                                  -------                                   |
 |               K-point      Ndimwin     Ndimfroz    Nfirstwin               |
 |               ----------------------------------------------               |
 |                   1           11            4           1                  |
 |                   2           11            4           1                  |
 |                   3           10            4           1                  |
 |                   4           11            4           1                  |
 |                   5           11            4           1                  |
 |                   6           10            4           1                  |
 |                   7           10            4           1                  |
 |                   8           10            4           1                  |
 |                   9           10            4           1                  |
 |                  10           10            4           1                  |
 |                  11            8            4           1                  |
 |                  12           10            4           1                  |
 |                  13           11            4           1                  |
 |                  14           10            4           1                  |
 |                  15           10            4           1                  |
 |                  16           10            4           1                  |
 |                  17           11            4           1                  |
 |                  18           10            4           1                  |
 |                  19           10            4           1                  |
 |                  20           10            4           1                  |
 |                  21           10            4           1                  |
 |                  22           11            4           1                  |
 |                  23           10            4           1                  |
 |                  24           10            4           1                  |
 |                  25           10            4           1                  |
 |                  26           10            4           1                  |
 |                  27           10            4           1                  |
 |                  28            8            4           1                  |
 |                  29           10            4           1                  |
 |                  30           10            4           1                  |
 |                  31            8            4           1                  |
 |                  32           10            4           1                  |
 |                  33           10            4           1                  |
 |                  34           10            4           1                  |
 |                  35            8            4           1                  |
 |                  36           10            4           1                  |
 |                  37           10            4           1                  |
 |                  38           10            4           1                  |
 |                  39           10            4           1                  |
 |                  40            8            4           1                  |
 |                  41            8            4           1                  |
 |                  42           10            4           1                  |
 |                  43           10            4           1                  |
 |                  44           10            4           1                  |
 |                  45           10            4           1                  |
 |                  46            8            4           1                  |
 |                  47           10            4           1                  |
 |                  48           10            4           1                  |
 |                  49           11            4           1                  |
 |                  50           10            4           1                  |
 |                  51           10            4           1                  |
 |                  52           10            4           1                  |
 |                  53           10            4           1                  |
 |                  54           10            4           1                  |
 |                  55            8            4           1                  |
 |                  56           10            4           1                  |
 |                  57           10            4           1                  |
 |                  58            8            4           1                  |
 |                  59           10            4           1                  |
 |                  60           10            4           1                  |
 |                  61           10            4           1                  |
 |                  62           10            4           1                  |
 |                  63           10            4           1                  |
 |                  64           11            4           1                  |
 +----------------------------------------------------------------------------+

                   Unitarised projection of Wannier functions                  
                   ------------------------------------------                  
   A_mn = <psi_m|g_n> --> S = A.A^+ --> U = S^-1/2.A
   In dis_project... done
   Using an inner window (linner = T)
   In dis_proj_froz... done

                   Extraction of optimally-connected subspace                  
                   ------------------------------------------                  
 +---------------------------------------------------------------------+<-- DIS
 |  Iter     Omega_I(i-1)      Omega_I(i)      Delta (frac.)    Time   |<-- DIS
 +---------------------------------------------------------------------+<-- DIS
       1      46.33958718      44.44656678       4.259E-02      0.00    <-- DIS
       2      44.98971520      44.23019880       1.717E-02      0.00    <-- DIS
       3      44.57277661      44.14609457       9.665E-03      0.00    <-- DIS
       4      44.33207260      44.10457199       5.158E-03      0.01    <-- DIS
       5      44.19839309      44.08232993       2.633E-03      0.01    <-- DIS
       6      44.12574549      44.06993437       1.266E-03      0.01    <-- DIS
       7      44.08694526      44.06281658       5.476E-04      0.01    <-- DIS
       8      44.06662901      44.05862613       1.816E-04      0.01    <-- DIS
       9      44.05629571      44.05610775       4.266E-06      0.01    <-- DIS
      10      44.05129486      44.05456893      -7.432E-05      0.02    <-- DIS
      11      44.04910089      44.05361634      -1.025E-04      0.02    <-- DIS
      12      44.04835064      44.05302070      -1.060E-04      0.02    <-- DIS
      13      44.04831363      44.05264542      -9.833E-05      0.02    <-- DIS
      14      44.04860262      44.05240761      -8.637E-05      0.02    <-- DIS
      15      44.04901603      44.05225629      -7.355E-05      0.02    <-- DIS
      16      44.04945223      44.05215969      -6.146E-05      0.03    <-- DIS
      17      44.04986304      44.05209788      -5.073E-05      0.03    <-- DIS
      18      44.05022845      44.05205827      -4.154E-05      0.03    <-- DIS
      19      44.05054293      44.05203285      -3.382E-05      0.03    <-- DIS
      20      44.05080804      44.05201652      -2.743E-05      0.03    <-- DIS
      21      44.05102852      44.05200603      -2.219E-05      0.03    <-- DIS
      22      44.05121017      44.05199928      -1.791E-05      0.04    <-- DIS
      23      44.05135884      44.05199494      -1.444E-05      0.04    <-- DIS
      24      44.05147994      44.05199215      -1.163E-05      0.04    <-- DIS
      25      44.05157823      44.05199035      -9.355E-06      0.04    <-- DIS
      26      44.05165781      44.05198919      -7.522E-06      0.04    <-- DIS
      27      44.05172211      44.05198844      -6.046E-06      0.04    <-- DIS
      28      44.05177398      44.05198796      -4.858E-06      0.05    <-- DIS
      29      44.05181578      44.05198766      -3.902E-06      0.05    <-- DIS
      30      44.05184943      44.05198746      -3.133E-06      0.05    <-- DIS
      31      44.05187650      44.05198733      -2.516E-06      0.05    <-- DIS
      32      44.05189827      44.05198725      -2.020E-06      0.05    <-- DIS
      33      44.05191577      44.05198719      -1.621E-06      0.05    <-- DIS
      34      44.05192983      44.05198716      -1.301E-06      0.06    <-- DIS
      35      44.05194112      44.05198714      -1.045E-06      0.06    <-- DIS
      36      44.05195019      44.05198712      -8.384E-07      0.06    <-- DIS
      37      44.05195747      44.05198711      -6.729E-07      0.06    <-- DIS
      38      44.05196332      44.05198711      -5.400E-07      0.06    <-- DIS
      39      44.05196801      44.05198710      -4.334E-07      0.06    <-- DIS
      40      44.05197178      44.05198710      -3.478E-07      0.07    <-- DIS
      41      44.05197480      44.05198710      -2.791E-07      0.07    <-- DIS
      42      44.05197723      44.05198710      -2.240E-07      0.07    <-- DIS
      43      44.05197918      44.05198710      -1.798E-07      0.07    <-- DIS
      44      44.05198074      44.05198710      -1.443E-07      0.07    <-- DIS
      45      44.05198200      44.05198710      -1.158E-07      0.07    <-- DIS
      46      44.05198300      44.05198710      -9.292E-08      0.08    <-- DIS
      47      44.05198381      44.05198710      -7.457E-08      0.08    <-- DIS
      48      44.05198446      44.05198710      -5.984E-08      0.08    <-- DIS
      49      44.05198498      44.05198710      -4.802E-08      0.08    <-- DIS
      50      44.05198540      44.05198710      -3.854E-08      0.08    <-- DIS
      51      44.05198573      44.05198710      -3.093E-08      0.08    <-- DIS
      52      44.05198600      44.05198710      -2.482E-08      0.09    <-- DIS
      53      44.05198622      44.05198710      -1.992E-08      0.09    <-- DIS
      54      44.05198639      44.05198710      -1.598E-08      0.09    <-- DIS
      55      44.05198653      44.05198710      -1.283E-08      0.09    <-- DIS
      56      44.05198664      44.05198710      -1.029E-08      0.09    <-- DIS
      57      44.05198673      44.05198710      -8.261E-09      0.09    <-- DIS
      58      44.05198680      44.05198710      -6.630E-09      0.10    <-- DIS
      59      44.05198686      44.05198710      -5.321E-09      0.10    <-- DIS
      60      44.05198691      44.05198710      -4.270E-09      0.10    <-- DIS
      61      44.05198695      44.05198710      -3.427E-09      0.10    <-- DIS
      62      44.05198698      44.05198710      -2.750E-09      0.10    <-- DIS
      63      44.05198700      44.05198710      -2.207E-09      0.10    <-- DIS
      64      44.05198702      44.05198710      -1.771E-09      0.11    <-- DIS
      65      44.05198703      44.05198710      -1.421E-09      0.11    <-- DIS
      66      44.05198705      44.05198710      -1.141E-09      0.11    <-- DIS
      67      44.05198706      44.05198710      -9.153E-10      0.11    <-- DIS
      68      44.05198706      44.05198710      -7.345E-10      0.11    <-- DIS
      69      44.05198707      44.05198710      -5.895E-10      0.11    <-- DIS
      70      44.05198708      44.05198710      -4.731E-10      0.11    <-- DIS
      71      44.05198708      44.05198710      -3.796E-10      0.12    <-- DIS
      72      44.05198708      44.05198710      -3.047E-10      0.12    <-- DIS
      73      44.05198709      44.05198710      -2.445E-10      0.12    <-- DIS
      74      44.05198709      44.05198710      -1.962E-10      0.12    <-- DIS
      75      44.05198709      44.05198710      -1.575E-10      0.12    <-- DIS
      76      44.05198709      44.05198710      -1.264E-10      0.12    <-- DIS
      77      44.05198709      44.05198710      -1.014E-10      0.13    <-- DIS
      78      44.05198709      44.05198710      -8.138E-11      0.13    <-- DIS
      79      44.05198709      44.05198710      -6.531E-11      0.13    <-- DIS
      80      44.05198709      44.05198710      -5.241E-11      0.13    <-- DIS

             <<<      Delta < 1.000E-10  over  3 iterations     >>>
             <<< Disentanglement convergence criteria satisfied >>>

        Final Omega_I    44.05198710 (Bohr^2)

 +----------------------------------------------------------------------------+


 Writing checkpoint file silicon.chk... done

 
 *------------------------------- WANNIERISE ---------------------------------*
 +--------------------------------------------------------------------+<-- CONV
 | Iter  Delta Spread     RMS Gradient      Spread (Bohr^2)     Time  |<-- CONV
 +--------------------------------------------------------------------+<-- CONV
 
 ------------------------------------------------------------------------------
 Initial State
  WF centre and spread    1  (  3.367337,  3.367337,  3.367337 )     7.52017107
  WF centre and spread    2  (  3.367337,  1.732663,  1.732663 )     7.52017106
  WF centre and spread    3  (  1.732663,  3.367337,  1.732663 )     7.52017109
  WF centre and spread    4  (  1.732663,  1.732663,  3.367337 )     7.52017109
  WF centre and spread    5  (  0.439368,  0.439368,  0.439368 )     8.69161932
  WF centre and spread    6  (  0.439368, -0.439368, -0.439368 )     8.69161933
  WF centre and spread    7  ( -0.439368,  0.439368, -0.439368 )     8.69161935
  WF centre and spread    8  ( -0.439368, -0.439368,  0.439368 )     8.69161936
  Sum of centres and spreads ( 10.200000, 10.200000, 10.200000 )    64.84716166
 
      0     0.648E+02     0.0000000000       64.8471616641       0.14  <-- CONV
        O_D=      0.6955458 O_OD=     20.0996288 O_TOT=     64.8471617 <-- SPRD
 ------------------------------------------------------------------------------
 Cycle:      1
  WF centre and spread    1  (  3.405342,  3.405342,  3.405342 )     7.30717395
  WF centre and spread    2  (  3.405342,  1.694658,  1.694658 )     7.30717395
  WF centre and spread    3  (  1.694658,  3.405342,  1.694658 )     7.30717398
  WF centre and spread    4  (  1.694658,  1.694658,  3.405342 )     7.30717398
  WF centre and spread    5  (  0.426185,  0.426185,  0.426185 )     8.52077981
  WF centre and spread    6  (  0.426185, -0.426185, -0.426185 )     8.52077982
  WF centre and spread    7  ( -0.426185,  0.426185, -0.426185 )     8.52077984
  WF centre and spread    8  ( -0.426185, -0.426185,  0.426185 )     8.52077984
  Sum of centres and spreads ( 10.200000, 10.200000, 10.200000 )    63.31181516
 
      1    -0.154E+01     0.9244128658       63.3118151557       0.14  <-- CONV
        O_D=      0.7192020 O_OD=     18.5406260 O_TOT=     63.3118152 <-- SPRD
 Delta: O_D=  0.2365627E-01 O_OD= -0.1559003E+01 O_TOT= -0.1535347E+01 <-- DLTA
 ------------------------------------------------------------------------------
 Cycle:     10
  WF centre and spread    1  (  3.415691,  3.415691,  3.415691 )     7.25616427
  WF centre and spread    2  (  3.415691,  1.684309,  1.684309 )     7.25616427
  WF centre and spread    3  (  1.684309,  3.415691,  1.684309 )     7.25616430
  WF centre and spread    4  (  1.684309,  1.684309,  3.415691 )     7.25616430
  WF centre and spread    5  (  0.430381,  0.430381,  0.430381 )     8.43272687
  WF centre and spread    6  (  0.430381, -0.430381, -0.430381 )     8.43272689
  WF centre and spread    7  ( -0.430381,  0.430381, -0.430381 )     8.43272691
  WF centre and spread    8  ( -0.430381, -0.430381,  0.430381 )     8.43272688
  Sum of centres and spreads ( 10.200000, 10.200000, 10.200000 )    62.75556469
 
     10    -0.190E-05     0.0013839710       62.7555646896       0.17  <-- CONV
        O_D=      0.7220148 O_OD=     17.9815628 O_TOT=     62.7555647 <-- SPRD
 Delta: O_D= -0.6109155E-04 O_OD=  0.5919185E-04 O_TOT= -0.1899699E-05 <-- DLTA
 ------------------------------------------------------------------------------
 Cycle:     20
  WF centre and spread    1  (  3.415703,  3.415703,  3.415703 )     7.25711876
  WF centre and spread    2  (  3.415703,  1.684297,  1.684297 )     7.25711876
  WF centre and spread    3  (  1.684297,  3.415703,  1.684297 )     7.25711879
  WF centre and spread    4  (  1.684297,  1.684297,  3.415703 )     7.25711879
  WF centre and spread    5  (  0.430395,  0.430395,  0.430395 )     8.43177209
  WF centre and spread    6  (  0.430395, -0.430395, -0.430395 )     8.43177212
  WF centre and spread    7  ( -0.430395,  0.430395, -0.430395 )     8.43177214
  WF centre and spread    8  ( -0.430395, -0.430395,  0.430395 )     8.43177209
  Sum of centres and spreads ( 10.200000, 10.200000, 10.200000 )    62.75556357
 
     20    -0.181E-10     0.0000227959       62.7555635682       0.20  <-- CONV
        O_D=      0.7219414 O_OD=     17.9816351 O_TOT=     62.7555636 <-- SPRD
 Delta: O_D= -0.1373932E-07 O_OD=  0.1372124E-07 O_TOT= -0.1807893E-10 <-- DLTA
 ------------------------------------------------------------------------------
 Cycle:     30
  WF centre and spread    1  (  3.415703,  3.415703,  3.415703 )     7.25712445
  WF centre and spread    2  (  3.415703,  1.684297,  1.684297 )     7.25712445
  WF centre and spread    3  (  1.684297,  3.415703,  1.684297 )     7.25712448
  WF centre and spread    4  (  1.684297,  1.684297,  3.415703 )     7.25712448
  WF centre and spread    5  (  0.430395,  0.430395,  0.430395 )     8.43176641
  WF centre and spread    6  (  0.430395, -0.430395, -0.430395 )     8.43176644
  WF centre and spread    7  ( -0.430395,  0.430395, -0.430394 )     8.43176646
  WF centre and spread    8  ( -0.430395, -0.430395,  0.430395 )     8.43176640
  Sum of centres and spreads ( 10.200000, 10.200000, 10.200000 )    62.75556357
 
     30    -0.232E-11     0.0000035829       62.7555635676       0.23  <-- CONV
        O_D=      0.7219404 O_OD=     17.9816361 O_TOT=     62.7555636 <-- SPRD
 Delta: O_D= -0.1258581E-07 O_OD=  0.1258347E-07 O_TOT= -0.2321716E-11 <-- DLTA
 ------------------------------------------------------------------------------
 Cycle:     40
  WF centre and spread    1  (  3.415703,  3.415703,  3.415703 )     7.25712609
  WF centre and spread    2  (  3.415703,  1.684297,  1.684297 )     7.25712609
  WF centre and spread    3  (  1.684297,  3.415703,  1.684297 )     7.25712612
  WF centre and spread    4  (  1.684297,  1.684297,  3.415703 )     7.25712612
  WF centre and spread    5  (  0.430395,  0.430395,  0.430395 )     8.43176477
  WF centre and spread    6  (  0.430395, -0.430395, -0.430395 )     8.43176480
  WF centre and spread    7  ( -0.430395,  0.430395, -0.430395 )     8.43176482
  WF centre and spread    8  ( -0.430395, -0.430395,  0.430395 )     8.43176477
  Sum of centres and spreads ( 10.200000, 10.200000, 10.200000 )    62.75556357
 
     40    -0.123E-11     0.0000026270       62.7555635675       0.26  <-- CONV
        O_D=      0.7219402 O_OD=     17.9816363 O_TOT=     62.7555636 <-- SPRD
 Delta: O_D= -0.7694136E-08 O_OD=  0.7692903E-08 O_TOT= -0.1230636E-11 <-- DLTA
 ------------------------------------------------------------------------------
 Cycle:     50
  WF centre and spread    1  (  3.415703,  3.415703,  3.415703 )     7.25712922
  WF centre and spread    2  (  3.415703,  1.684297,  1.684297 )     7.25712921
  WF centre and spread    3  (  1.684297,  3.415703,  1.684297 )     7.25712924
  WF centre and spread    4  (  1.684297,  1.684297,  3.415703 )     7.25712924
  WF centre and spread    5  (  0.430395,  0.430395,  0.430395 )     8.43176164
  WF centre and spread    6  (  0.430395, -0.430395, -0.430395 )     8.43176167
  WF centre and spread    7  ( -0.430395,  0.430395, -0.430395 )     8.43176170
  WF centre and spread    8  ( -0.430395, -0.430395,  0.430395 )     8.43176164
  Sum of centres and spreads ( 10.200000, 10.200000, 10.200000 )    62.75556357
 
     50    -0.190E-12     0.0000020903       62.7555635675       0.29  <-- CONV
        O_D=      0.7219399 O_OD=     17.9816366 O_TOT=     62.7555636 <-- SPRD
 Delta: O_D= -0.1704529E-08 O_OD=  0.1704336E-08 O_TOT= -0.1903046E-12 <-- DLTA
 ------------------------------------------------------------------------------
 Cycle:     60
  WF centre and spread    1  (  3.415703,  3.415703,  3.415703 )     7.25712968
  WF centre and spread    2  (  3.415703,  1.684297,  1.684297 )     7.25712968
  WF centre and spread    3  (  1.684297,  3.415703,  1.684297 )     7.25712971
  WF centre and spread    4  (  1.684297,  1.684297,  3.415703 )     7.25712971
  WF centre and spread    5  (  0.430395,  0.430395,  0.430395 )     8.43176118
  WF centre and spread    6  (  0.430395, -0.430395, -0.430395 )     8.43176121
  WF centre and spread    7  ( -0.430395,  0.430395, -0.430395 )     8.43176123
  WF centre and spread    8  ( -0.430395, -0.430395,  0.430395 )     8.43176117
  Sum of centres and spreads ( 10.200000, 10.200000, 10.200000 )    62.75556357
 
     60    -0.266E-12     0.0000011981       62.7555635675       0.32  <-- CONV
        O_D=      0.7219398 O_OD=     17.9816366 O_TOT=     62.7555636 <-- SPRD
 Delta: O_D= -0.7643243E-08 O_OD=  0.7642974E-08 O_TOT= -0.2664264E-12 <-- DLTA
 ------------------------------------------------------------------------------
 Cycle:     70
  WF centre and spread    1  (  3.415703,  3.415703,  3.415703 )     7.25713008
  WF centre and spread    2  (  3.415703,  1.684297,  1.684297 )     7.25713008
  WF centre and spread    3  (  1.684297,  3.415703,  1.684297 )     7.25713011
  WF centre and spread    4  (  1.684297,  1.684297,  3.415703 )     7.25713011
  WF centre and spread    5  (  0.430395,  0.430395,  0.430395 )     8.43176078
  WF centre and spread    6  (  0.430395, -0.430395, -0.430395 )     8.43176081
  WF centre and spread    7  ( -0.430395,  0.430395, -0.430395 )     8.43176083
  WF centre and spread    8  ( -0.430395, -0.430395,  0.430395 )     8.43176077
  Sum of centres and spreads ( 10.200000, 10.200000, 10.200000 )    62.75556357
 
     70    -0.203E-12     0.0000010373       62.7555635675       0.34  <-- CONV
        O_D=      0.7219398 O_OD=     17.9816367 O_TOT=     62.7555636 <-- SPRD
 Delta: O_D= -0.3257224E-08 O_OD=  0.3257018E-08 O_TOT= -0.2029915E-12 <-- DLTA
 ------------------------------------------------------------------------------
 Cycle:     80
  WF centre and spread    1  (  3.415703,  3.415703,  3.415703 )     7.25713031
  WF centre and spread    2  (  3.415703,  1.684297,  1.684297 )     7.25713031
  WF centre and spread    3  (  1.684297,  3.415703,  1.684297 )     7.25713034
  WF centre and spread    4  (  1.684297,  1.684297,  3.415703 )     7.25713034
  WF centre and spread    5  (  0.430395,  0.430395,  0.430395 )     8.43176055
  WF centre and spread    6  (  0.430395, -0.430395, -0.430395 )     8.43176058
  WF centre and spread    7  ( -0.430395,  0.430395, -0.430395 )     8.43176060
  WF centre and spread    8  ( -0.430395, -0.430395,  0.430395 )     8.43176054
  Sum of centres and spreads ( 10.200000, 10.200000, 10.200000 )    62.75556357
 
     80    -0.888E-13     0.0000009439       62.7555635675       0.37  <-- CONV
        O_D=      0.7219398 O_OD=     17.9816367 O_TOT=     62.7555636 <-- SPRD
 Delta: O_D= -0.3889786E-09 O_OD=  0.3888969E-09 O_TOT= -0.8880880E-13 <-- DLTA
 ------------------------------------------------------------------------------
 Cycle:     90
  WF centre and spread    1  (  3.415703,  3.415703,  3.415703 )     7.25713053
  WF centre and spread    2  (  3.415703,  1.684297,  1.684297 )     7.25713053
  WF centre and spread    3  (  1.684297,  3.415703,  1.684297 )     7.25713056
  WF centre and spread    4  (  1.684297,  1.684297,  3.415703 )     7.25713056
  WF centre and spread    5  (  0.430395,  0.430395,  0.430395 )     8.43176032
  WF centre and spread    6  (  0.430395, -0.430395, -0.430395 )     8.43176036
  WF centre and spread    7  ( -0.430395,  0.430395, -0.430395 )     8.43176038
  WF centre and spread    8  ( -0.430395, -0.430395,  0.430395 )     8.43176032
  Sum of centres and spreads ( 10.200000, 10.200000, 10.200000 )    62.75556357
 
     90    -0.761E-13     0.0000008717       62.7555635675       0.39  <-- CONV
        O_D=      0.7219398 O_OD=     17.9816367 O_TOT=     62.7555636 <-- SPRD
 Delta: O_D= -0.1880011E-08 O_OD=  0.1879933E-08 O_TOT= -0.7612183E-13 <-- DLTA
 ------------------------------------------------------------------------------
 Cycle:    100
  WF centre and spread    1  (  3.415703,  3.415703,  3.415703 )     7.25713070
  WF centre and spread    2  (  3.415703,  1.684297,  1.684297 )     7.25713070
  WF centre and spread    3  (  1.684297,  3.415703,  1.684297 )     7.25713073
  WF centre and spread    4  (  1.684297,  1.684297,  3.415703 )     7.25713073
  WF centre and spread    5  (  0.430395,  0.430395,  0.430395 )     8.43176016
  WF centre and spread    6  (  0.430395, -0.430395, -0.430395 )     8.43176019
  WF centre and spread    7  ( -0.430395,  0.430395, -0.430395 )     8.43176021
  WF centre and spread    8  ( -0.430395, -0.430395,  0.430395 )     8.43176015
  Sum of centres and spreads ( 10.200000, 10.200000, 10.200000 )    62.75556357
 
    100    -0.140E-12     0.0000008144       62.7555635675       0.42  <-- CONV
        O_D=      0.7219397 O_OD=     17.9816367 O_TOT=     62.7555636 <-- SPRD
 Delta: O_D= -0.2211945E-08 O_OD=  0.2211808E-08 O_TOT= -0.1395567E-12 <-- DLTA
 ------------------------------------------------------------------------------
 Final State
  WF centre and spread    1  (  3.415703,  3.415703,  3.415703 )     7.25713070
  WF centre and spread    2  (  3.415703,  1.684297,  1.684297 )     7.25713070
  WF centre and spread    3  (  1.684297,  3.415703,  1.684297 )     7.25713073
  WF centre and spread    4  (  1.684297,  1.684297,  3.415703 )     7.25713073
  WF centre and spread    5  (  0.430395,  0.430395,  0.430395 )     8.43176016
  WF centre and spread    6  (  0.430395, -0.430395, -0.430395 )     8.43176019
  WF centre and spread    7  ( -0.430395,  0.430395, -0.430395 )     8.43176021
  WF centre and spread    8  ( -0.430395, -0.430395,  0.430395 )     8.43176015
  Sum of centres and spreads ( 10.200000, 10.200000, 10.200000 )    62.75556357
 
        Spreads (Bohr^2)       Omega I      =    44.051987097
        ================       Omega D      =     0.721939736
                               Omega OD     =    17.981636735
   Final Spread (Bohr^2)       Omega Total  =    62.755563567
 ------------------------------------------------------------------------------

 Writing checkpoint file silicon.chk... done

  
  Omega Invariant:   1-s^2 =    44.051987097 (Bohr^2)
                   -2log s =    71.209790134 (Bohr^2)
                    acos^2 =    58.227643096 (Bohr^2)

 *===========================================================================*
 |                             TIMING INFORMATION                            |
 *===========================================================================*
 |    Tag                                                Ncalls      Time (s)|
 |---------------------------------------------------------------------------|
 |kmesh: get                                        :         1         0.012|
 |overlap: read                                     :         1         0.061|
 |dis: main                                         :         1         0.138|
 |wann: main                                        :         1         0.286|
 |plot: main                                        :         1         0.000|
 *---------------------------------------------------------------------------*
