 written on 18Jul2024 at 12:03:22 
           4
          93
   -3    1    1    1    1    0.000000    0.000000   -0.000000   -0.000000   -0.000000   -0.000000
   -3    1    1    2    1    0.000949   -0.000000   -0.000949    0.000000   -0.002102   -0.000000
   -3    1    1    3    1    0.002102   -0.000000   -0.000949   -0.000000   -0.000949    0.000000
   -3    1    1    4    1    0.000949    0.000000   -0.002102   -0.000000   -0.000949   -0.000000
   -3    1    1    1    2   -0.000176    0.000000    0.000176   -0.000000   -0.001640    0.000000
   -3    1    1    2    2    0.000000    0.000000   -0.000000    0.000000    0.000000   -0.000000
   -3    1    1    3    2   -0.000473   -0.000000    0.001626    0.000000   -0.000190    0.000000
   -3    1    1    4    2   -0.001626   -0.000000    0.000473   -0.000000   -0.000190    0.000000
   -3    1    1    1    3    0.001640   -0.000000    0.000176   -0.000000    0.000176   -0.000000
   -3    1    1    2    3    0.000190   -0.000000    0.001626   -0.000000    0.000473    0.000000
   -3    1    1    3    3   -0.000000    0.000000   -0.000000    0.000000   -0.000000    0.000000
   -3    1    1    4    3    0.000190    0.000000    0.000473   -0.000000    0.001626    0.000000
   -3    1    1    1    4   -0.000176    0.000000   -0.001640    0.000000    0.000176    0.000000
   -3    1    1    2    4   -0.001626    0.000000   -0.000190    0.000000    0.000473    0.000000
   -3    1    1    3    4   -0.000473    0.000000   -0.000190   -0.000000    0.001626   -0.000000
   -3    1    1    4    4    0.000000    0.000000    0.000000    0.000000   -0.000000   -0.000000
   -2   -2    2    1    1   -0.000000    0.000000   -0.000000    0.000000    0.000000   -0.000000
   -2   -2    2    2    1    0.000046    0.000000   -0.000046   -0.000000    0.000020    0.000000
   -2   -2    2    3    1   -0.000020   -0.000000   -0.000046    0.000000   -0.000046   -0.000000
   -2   -2    2    4    1    0.000046   -0.000000    0.000020   -0.000000   -0.000046    0.000000
   -2   -2    2    1    2   -0.000046    0.000000    0.000046   -0.000000   -0.000020    0.000000
   -2   -2    2    2    2   -0.000000   -0.000000    0.000000    0.000000   -0.000000    0.000000
   -2   -2    2    3    2   -0.000066    0.000000   -0.000000    0.000000   -0.000066   -0.000000
   -2   -2    2    4    2   -0.000000   -0.000000    0.000066    0.000000   -0.000066   -0.000000
   -2   -2    2    1    3    0.000020   -0.000000    0.000046    0.000000    0.000046   -0.000000
   -2   -2    2    2    3    0.000066    0.000000    0.000000    0.000000    0.000066   -0.000000
   -2   -2    2    3    3    0.000000   -0.000000    0.000000   -0.000000    0.000000   -0.000000
   -2   -2    2    4    3    0.000066   -0.000000    0.000066   -0.000000    0.000000    0.000000
   -2   -2    2    1    4   -0.000046   -0.000000   -0.000020   -0.000000    0.000046    0.000000
   -2   -2    2    2    4    0.000000   -0.000000   -0.000066    0.000000    0.000066   -0.000000
   -2   -2    2    3    4   -0.000066   -0.000000   -0.000066   -0.000000   -0.000000    0.000000
   -2   -2    2    4    4   -0.000000    0.000000    0.000000   -0.000000    0.000000   -0.000000
   -2   -1    1    1    1    0.000000   -0.000000    0.000000    0.000000    0.000000   -0.000000
   -2   -1    1    2    1   -0.000869   -0.000000   -0.000572   -0.000000    0.001254    0.000000
   -2   -1    1    3    1    0.000903    0.000000    0.000318   -0.000000   -0.000667   -0.000000
   -2   -1    1    4    1   -0.000163    0.000000    0.000755   -0.000000   -0.000678   -0.000000
   -2   -1    1    1    2   -0.000476    0.000000   -0.000510   -0.000000    0.001094    0.000000
   -2   -1    1    2    2    0.000000   -0.000000   -0.000000   -0.000000    0.000000   -0.000000
   -2   -1    1    3    2    0.000019    0.000000    0.000047   -0.000000    0.000019   -0.000000
   -2   -1    1    4    2    0.000769   -0.000000   -0.000533    0.000000   -0.000150    0.000000
   -2   -1    1    1    3    0.000900   -0.000000    0.000842    0.000000   -0.001223   -0.000000
   -2   -1    1    2    3    0.000018    0.000000    0.000141    0.000000    0.000018   -0.000000
   -2   -1    1    3    3    0.000000    0.000000    0.000000    0.000000    0.000000    0.000000
   -2   -1    1    4    3   -0.000908   -0.000000    0.000585   -0.000000    0.000586   -0.000000
   -2   -1    1    1    4   -0.000678   -0.000000    0.000274   -0.000000   -0.000163    0.000000
   -2   -1    1    2    4    0.000940   -0.000000   -0.000315   -0.000000   -0.000554   -0.000000
   -2   -1    1    3    4   -0.000341    0.000000    0.000341    0.000000    0.000577   -0.000000
   -2   -1    1    4    4    0.000000    0.000000   -0.000000    0.000000    0.000000    0.000000
   -2   -1    2    1    1    0.000000    0.000000    0.000000   -0.000000    0.000000   -0.000000
   -2   -1    2    2    1   -0.000667   -0.000000   -0.000318    0.000000    0.000903    0.000000
   -2   -1    2    3    1    0.000020   -0.000000    0.000046   -0.000000    0.000046    0.000000
   -2   -1    2    4    1   -0.000667   -0.000000    0.000903   -0.000000   -0.000318   -0.000000
   -2   -1    2    1    2   -0.000614    0.000000   -0.000826   -0.000000    0.001239    0.000000
   -2   -1    2    2    2    0.000000   -0.000000    0.000000   -0.000000    0.000000   -0.000000
   -2   -1    2    3    2    0.000483   -0.000000    0.000738    0.000000   -0.000483    0.000000
   -2   -1    2    4    2    0.000344    0.000000    0.000248   -0.000000   -0.000749    0.000000
   -2   -1    2    1    3    0.000067   -0.000000    0.000092    0.000000    0.000092   -0.000000
   -2   -1    2    2    3    0.000743    0.000000    0.000999   -0.000000   -0.001066    0.000000
   -2   -1    2    3    3   -0.000000    0.000000   -0.000000    0.000000   -0.000000    0.000000
   -2   -1    2    4    3    0.000743   -0.000000   -0.001066    0.000000    0.000999    0.000000
   -2   -1    2    1    4   -0.000614   -0.000000    0.001239    0.000000   -0.000826    0.000000
   -2   -1    2    2    4    0.000344    0.000000   -0.000749    0.000000    0.000248    0.000000
   -2   -1    2    3    4    0.000483   -0.000000   -0.000483   -0.000000    0.000738   -0.000000
   -2   -1    2    4    4   -0.000000    0.000000   -0.000000   -0.000000   -0.000000   -0.000000
   -2    0    0    1    1   -0.000000    0.000000   -0.000000    0.000000   -0.000000    0.000000
   -2    0    0    2    1    0.002327   -0.000000    0.000628   -0.000000   -0.001254   -0.000000
   -2    0    0    3    1    0.001254    0.000000    0.000628    0.000000   -0.002327   -0.000000
   -2    0    0    4    1    0.010261    0.000000    0.004730   -0.000000   -0.010261   -0.000000
   -2    0    0    1    2   -0.001254    0.000000   -0.000665    0.000000    0.002327    0.000000
   -2    0    0    2    2    0.000000   -0.000000    0.000000    0.000000    0.000000   -0.000000
   -2    0    0    3    2   -0.000000    0.000000   -0.000123   -0.000000    0.000000    0.000000
   -2    0    0    4    2    0.001781    0.000000   -0.000558    0.000000   -0.000708    0.000000
   -2    0    0    1    3   -0.002327    0.000000   -0.000665    0.000000    0.001254   -0.000000
   -2    0    0    2    3    0.000000   -0.000000   -0.000123    0.000000   -0.000000   -0.000000
   -2    0    0    3    3    0.000000   -0.000000   -0.000000    0.000000    0.000000    0.000000
   -2    0    0    4    3    0.000708   -0.000000   -0.000558   -0.000000   -0.001781   -0.000000
   -2    0    0    1    4   -0.010261    0.000000    0.002923   -0.000000    0.010261   -0.000000
   -2    0    0    2    4   -0.000708   -0.000000    0.000521    0.000000    0.001781   -0.000000
   -2    0    0    3    4   -0.001781    0.000000    0.000521    0.000000    0.000708    0.000000
   -2    0    0    4    4    0.000000   -0.000000   -0.000000    0.000000    0.000000    0.000000
   -2    0    1    1    1    0.000000    0.000000   -0.000000   -0.000000    0.000000   -0.000000
   -2    0    1    2    1   -0.002327    0.000000   -0.000628    0.000000    0.001254    0.000000
   -2    0    1    3    1    0.001254   -0.000000    0.000572   -0.000000   -0.000869    0.000000
   -2    0    1    4    1    0.000062    0.000000   -0.000395   -0.000000    0.000009   -0.000000
   -2    0    1    1    2   -0.000932    0.000000   -0.002023    0.000000    0.001327    0.000000
   -2    0    1    2    2   -0.000000   -0.000000    0.000000   -0.000000    0.000000   -0.000000
   -2    0    1    3    2    0.000876   -0.000000    0.000950    0.000000   -0.000933   -0.000000
   -2    0    1    4    2   -0.000323   -0.000000   -0.000010   -0.000000    0.000110    0.000000
   -2    0    1    1    3    0.001895   -0.000000    0.001970   -0.000000   -0.001178   -0.000000
   -2    0    1    2    3    0.002123   -0.000000    0.001742   -0.000000   -0.000968    0.000000
   -2    0    1    3    3   -0.000000    0.000000   -0.000000    0.000000   -0.000000    0.000000
   -2    0    1    4    3   -0.001399   -0.000000   -0.000996   -0.000000    0.001902   -0.000000
   -2    0    1    1    4   -0.001577    0.000000    0.002220    0.000000   -0.001420   -0.000000
   -2    0    1    2    4    0.002262    0.000000   -0.001619    0.000000    0.000599    0.000000
   -2    0    1    3    4   -0.002316   -0.000000   -0.001693   -0.000000    0.001955   -0.000000
   -2    0    1    4    4   -0.000000    0.000000    0.000000    0.000000   -0.000000    0.000000
   -2    0    2    1    1    0.000000   -0.000000    0.000000    0.000000    0.000000   -0.000000
   -2    0    2    2    1   -0.000911   -0.000000   -0.001008    0.000000    0.002133    0.000000
   -2    0    2    3    1   -0.000161   -0.000000    0.000038    0.000000    0.000038    0.000000
   -2    0    2    4    1   -0.000911   -0.000000    0.002133   -0.000000   -0.001008    0.000000
   -2    0    2    1    2    0.000821   -0.000000    0.002133   -0.000000   -0.001008   -0.000000
   -2    0    2    2    2    0.000000    0.000000    0.000000    0.000000    0.000000   -0.000000
   -2    0    2    3    2    0.000755   -0.000000    0.001127    0.000000   -0.002015    0.000000
   -2    0    2    4    2    0.003290   -0.000000    0.011700   -0.000000   -0.010627   -0.000000
   -2    0    2    1    3   -0.000161   -0.000000    0.000038   -0.000000    0.000038   -0.000000
   -2    0    2    2    3   -0.000977   -0.000000   -0.002015   -0.000000    0.001127   -0.000000
   -2    0    2    3    3    0.000000   -0.000000    0.000000   -0.000000    0.000000   -0.000000
   -2    0    2    4    3   -0.000977    0.000000    0.001127    0.000000   -0.002015    0.000000
   -2    0    2    1    4    0.000821   -0.000000   -0.001008   -0.000000    0.002133    0.000000
   -2    0    2    2    4    0.003290    0.000000   -0.010627    0.000000    0.011700    0.000000
   -2    0    2    3    4    0.000755    0.000000   -0.002015   -0.000000    0.001127   -0.000000
   -2    0    2    4    4    0.000000   -0.000000   -0.000000   -0.000000   -0.000000   -0.000000
   -2    1   -1    1    1    0.000000    0.000000    0.000000   -0.000000    0.000000    0.000000
   -2    1   -1    2    1    0.000667    0.000000    0.000318   -0.000000   -0.000903    0.000000
   -2    1   -1    3    1   -0.001254   -0.000000   -0.000572    0.000000    0.000869   -0.000000
   -2    1   -1    4    1    0.000678   -0.000000    0.000755   -0.000000    0.000163    0.000000
   -2    1   -1    1    2    0.001223   -0.000000    0.000842    0.000000   -0.000900   -0.000000
   -2    1   -1    2    2    0.000000    0.000000   -0.000000    0.000000    0.000000    0.000000
   -2    1   -1    3    2   -0.000018    0.000000    0.000141   -0.000000   -0.000018   -0.000000
   -2    1   -1    4    2   -0.000586   -0.000000    0.000585    0.000000    0.000908   -0.000000
   -2    1   -1    1    3   -0.001094    0.000000   -0.000510   -0.000000    0.000476   -0.000000
   -2    1   -1    2    3   -0.000019   -0.000000    0.000047    0.000000   -0.000019   -0.000000
   -2    1   -1    3    3    0.000000   -0.000000    0.000000   -0.000000    0.000000   -0.000000
   -2    1   -1    4    3    0.000150    0.000000   -0.000533    0.000000   -0.000769   -0.000000
   -2    1   -1    1    4    0.000163    0.000000    0.000274    0.000000    0.000678   -0.000000
   -2    1   -1    2    4   -0.000577   -0.000000    0.000341   -0.000000    0.000341   -0.000000
   -2    1   -1    3    4    0.000554    0.000000   -0.000315    0.000000   -0.000940    0.000000
   -2    1   -1    4    4    0.000000   -0.000000   -0.000000   -0.000000    0.000000   -0.000000
   -2    1    0    1    1   -0.000000    0.000000   -0.000000   -0.000000   -0.000000   -0.000000
   -2    1    0    2    1    0.000869    0.000000    0.000572   -0.000000   -0.001254   -0.000000
   -2    1    0    3    1   -0.001254   -0.000000   -0.000628    0.000000    0.002327   -0.000000
   -2    1    0    4    1   -0.000009    0.000000   -0.000395    0.000000   -0.000062    0.000000
   -2    1    0    1    2    0.001178    0.000000    0.001970    0.000000   -0.001895    0.000000
   -2    1    0    2    2    0.000000   -0.000000   -0.000000    0.000000    0.000000   -0.000000
   -2    1    0    3    2    0.000968   -0.000000    0.001742    0.000000   -0.002123    0.000000
   -2    1    0    4    2   -0.001902    0.000000   -0.000996    0.000000    0.001399   -0.000000
   -2    1    0    1    3   -0.001327   -0.000000   -0.002023    0.000000    0.000932    0.000000
   -2    1    0    2    3    0.000933   -0.000000    0.000950   -0.000000   -0.000876    0.000000
   -2    1    0    3    3   -0.000000    0.000000    0.000000    0.000000   -0.000000    0.000000
   -2    1    0    4    3   -0.000110    0.000000   -0.000010   -0.000000    0.000323   -0.000000
   -2    1    0    1    4    0.001420    0.000000    0.002220   -0.000000    0.001577   -0.000000
   -2    1    0    2    4   -0.001955    0.000000   -0.001693    0.000000    0.002316   -0.000000
   -2    1    0    3    4   -0.000599   -0.000000   -0.001619   -0.000000   -0.002262    0.000000
   -2    1    0    4    4   -0.000000    0.000000    0.000000   -0.000000   -0.000000   -0.000000
   -2    1    1    1    1   -0.000000    0.000000    0.000000   -0.000000   -0.000000   -0.000000
   -2    1    1    2    1    0.002164    0.000000    0.000984    0.000000   -0.001726    0.000000
   -2    1    1    3    1    0.001726   -0.000000    0.000984   -0.000000   -0.002164    0.000000
   -2    1    1    4    1   -0.000965   -0.000000   -0.001934    0.000000    0.000965    0.000000
   -2    1    1    1    2    0.000616   -0.000000    0.000824    0.000000   -0.001059    0.000000
   -2    1    1    2    2   -0.000000   -0.000000    0.000000    0.000000   -0.000000   -0.000000
   -2    1    1    3    2   -0.000684   -0.000000   -0.001198   -0.000000    0.002152    0.000000
   -2    1    1    4    2   -0.000418   -0.000000    0.000015   -0.000000    0.000135   -0.000000
   -2    1    1    1    3    0.001059   -0.000000    0.000824   -0.000000   -0.000616   -0.000000
   -2    1    1    2    3   -0.002152    0.000000   -0.001198   -0.000000    0.000684   -0.000000
   -2    1    1    3    3    0.000000    0.000000   -0.000000    0.000000    0.000000    0.000000
   -2    1    1    4    3   -0.000135    0.000000    0.000015    0.000000    0.000418    0.000000
   -2    1    1    1    4   -0.002252    0.000000   -0.001395   -0.000000    0.002252   -0.000000
   -2    1    1    2    4    0.003376   -0.000000    0.000263    0.000000    0.002481    0.000000
   -2    1    1    3    4   -0.002481    0.000000    0.000263   -0.000000   -0.003376   -0.000000
   -2    1    1    4    4    0.000000    0.000000   -0.000000    0.000000    0.000000    0.000000
   -2    1    2    1    1    0.000000   -0.000000    0.000000    0.000000    0.000000    0.000000
   -2    1    2    2    1    0.000777    0.000000    0.001287   -0.000000   -0.000778    0.000000
   -2    1    2    3    1    0.000161   -0.000000   -0.000038    0.000000   -0.000038   -0.000000
   -2    1    2    4    1    0.000777   -0.000000   -0.000778    0.000000    0.001287    0.000000
   -2    1    2    1    2    0.000263   -0.000000    0.000722    0.000000   -0.000499    0.000000
   -2    1    2    2    2    0.000000    0.000000    0.000000    0.000000    0.000000    0.000000
   -2    1    2    3    2   -0.000467    0.000000   -0.001359   -0.000000    0.000707    0.000000
   -2    1    2    4    2    0.000832    0.000000    0.000602   -0.000000   -0.000395   -0.000000
   -2    1    2    1    3    0.000048    0.000000   -0.000019   -0.000000   -0.000019    0.000000
   -2    1    2    2    3   -0.000708   -0.000000   -0.000896   -0.000000    0.000325   -0.000000
   -2    1    2    3    3   -0.000000   -0.000000   -0.000000   -0.000000   -0.000000   -0.000000
   -2    1    2    4    3   -0.000708    0.000000    0.000325   -0.000000   -0.000896    0.000000
   -2    1    2    1    4    0.000263   -0.000000   -0.000499    0.000000    0.000722   -0.000000
   -2    1    2    2    4    0.000832    0.000000   -0.000395   -0.000000    0.000602    0.000000
   -2    1    2    3    4   -0.000467   -0.000000    0.000707   -0.000000   -0.001359   -0.000000
   -2    1    2    4    4   -0.000000   -0.000000   -0.000000    0.000000   -0.000000    0.000000
   -2    2   -2    1    1   -0.000000    0.000000   -0.000000   -0.000000    0.000000   -0.000000
   -2    2   -2    2    1    0.000046    0.000000   -0.000046   -0.000000    0.000020    0.000000
   -2    2   -2    3    1   -0.000020   -0.000000   -0.000046    0.000000   -0.000046   -0.000000
   -2    2   -2    4    1    0.000046   -0.000000    0.000020   -0.000000   -0.000046    0.000000
   -2    2   -2    1    2   -0.000046    0.000000    0.000046   -0.000000   -0.000020    0.000000
   -2    2   -2    2    2   -0.000000    0.000000    0.000000   -0.000000   -0.000000   -0.000000
   -2    2   -2    3    2   -0.000066    0.000000   -0.000000    0.000000   -0.000066   -0.000000
   -2    2   -2    4    2   -0.000000   -0.000000    0.000066    0.000000   -0.000066   -0.000000
   -2    2   -2    1    3    0.000020   -0.000000    0.000046    0.000000    0.000046   -0.000000
   -2    2   -2    2    3    0.000066    0.000000    0.000000    0.000000    0.000066   -0.000000
   -2    2   -2    3    3    0.000000    0.000000    0.000000   -0.000000    0.000000   -0.000000
   -2    2   -2    4    3    0.000066   -0.000000    0.000066   -0.000000    0.000000    0.000000
   -2    2   -2    1    4   -0.000046   -0.000000   -0.000020   -0.000000    0.000046    0.000000
   -2    2   -2    2    4    0.000000   -0.000000   -0.000066    0.000000    0.000066   -0.000000
   -2    2   -2    3    4   -0.000066   -0.000000   -0.000066   -0.000000   -0.000000    0.000000
   -2    2   -2    4    4   -0.000000    0.000000    0.000000    0.000000    0.000000    0.000000
   -2    2   -1    1    1    0.000000    0.000000   -0.000000   -0.000000   -0.000000   -0.000000
   -2    2   -1    2    1   -0.000046    0.000000    0.000046   -0.000000   -0.000020   -0.000000
   -2    2   -1    3    1   -0.000903   -0.000000   -0.000318    0.000000    0.000667   -0.000000
   -2    2   -1    4    1    0.000318   -0.000000    0.000903    0.000000    0.000667    0.000000
   -2    2   -1    1    2   -0.000092   -0.000000    0.000092    0.000000   -0.000067    0.000000
   -2    2   -1    2    2    0.000000   -0.000000   -0.000000    0.000000   -0.000000   -0.000000
   -2    2   -1    3    2    0.001066    0.000000    0.000999    0.000000   -0.000743    0.000000
   -2    2   -1    4    2   -0.000999    0.000000   -0.001066   -0.000000   -0.000743   -0.000000
   -2    2   -1    1    3   -0.001239   -0.000000   -0.000826   -0.000000    0.000614   -0.000000
   -2    2   -1    2    3    0.000483   -0.000000    0.000738   -0.000000   -0.000483    0.000000
   -2    2   -1    3    3   -0.000000    0.000000    0.000000   -0.000000   -0.000000   -0.000000
   -2    2   -1    4    3    0.000749    0.000000    0.000248    0.000000   -0.000344   -0.000000
   -2    2   -1    1    4    0.000826    0.000000    0.001239    0.000000    0.000614   -0.000000
   -2    2   -1    2    4   -0.000738    0.000000   -0.000483    0.000000   -0.000483    0.000000
   -2    2   -1    3    4   -0.000248   -0.000000   -0.000749   -0.000000   -0.000344   -0.000000
   -2    2   -1    4    4   -0.000000    0.000000    0.000000   -0.000000   -0.000000   -0.000000
   -2    2    0    1    1   -0.000000   -0.000000    0.000000    0.000000   -0.000000    0.000000
   -2    2    0    2    1   -0.000038    0.000000    0.000038   -0.000000    0.000161    0.000000
   -2    2    0    3    1   -0.002133    0.000000   -0.001008    0.000000    0.000911   -0.000000
   -2    2    0    4    1    0.001008    0.000000    0.002133    0.000000    0.000911   -0.000000
   -2    2    0    1    2   -0.000038   -0.000000    0.000038    0.000000    0.000161   -0.000000
   -2    2    0    2    2    0.000000   -0.000000   -0.000000    0.000000   -0.000000   -0.000000
   -2    2    0    3    2   -0.001127    0.000000   -0.002015   -0.000000    0.000977    0.000000
   -2    2    0    4    2    0.002015   -0.000000    0.001127   -0.000000    0.000977   -0.000000
   -2    2    0    1    3    0.001008    0.000000    0.002133    0.000000   -0.000821    0.000000
   -2    2    0    2    3    0.002015   -0.000000    0.001127    0.000000   -0.000755    0.000000
   -2    2    0    3    3    0.000000   -0.000000   -0.000000    0.000000    0.000000   -0.000000
   -2    2    0    4    3    0.010627    0.000000    0.011700   -0.000000   -0.003290    0.000000
   -2    2    0    1    4   -0.002133    0.000000   -0.001008    0.000000   -0.000821   -0.000000
   -2    2    0    2    4   -0.001127   -0.000000   -0.002015   -0.000000   -0.000755    0.000000
   -2    2    0    3    4   -0.011700   -0.000000   -0.010627    0.000000   -0.003290   -0.000000
   -2    2    0    4    4    0.000000   -0.000000   -0.000000    0.000000    0.000000   -0.000000
   -2    2    1    1    1    0.000000   -0.000000   -0.000000    0.000000   -0.000000    0.000000
   -2    2    1    2    1    0.000038   -0.000000   -0.000038   -0.000000   -0.000161    0.000000
   -2    2    1    3    1    0.000778   -0.000000    0.001287   -0.000000   -0.000777   -0.000000
   -2    2    1    4    1   -0.001287    0.000000   -0.000778    0.000000   -0.000777   -0.000000
   -2    2    1    1    2    0.000019    0.000000   -0.000019    0.000000   -0.000048    0.000000
   -2    2    1    2    2    0.000000    0.000000   -0.000000   -0.000000   -0.000000    0.000000
   -2    2    1    3    2   -0.000325   -0.000000   -0.000896   -0.000000    0.000708    0.000000
   -2    2    1    4    2    0.000896    0.000000    0.000325    0.000000    0.000708    0.000000
   -2    2    1    1    3    0.000499    0.000000    0.000722    0.000000   -0.000263   -0.000000
   -2    2    1    2    3   -0.000707    0.000000   -0.001359   -0.000000    0.000467    0.000000
   -2    2    1    3    3   -0.000000   -0.000000    0.000000    0.000000   -0.000000    0.000000
   -2    2    1    4    3    0.000395   -0.000000    0.000602   -0.000000   -0.000832   -0.000000
   -2    2    1    1    4   -0.000722   -0.000000   -0.000499   -0.000000   -0.000263    0.000000
   -2    2    1    2    4    0.001359   -0.000000    0.000707    0.000000    0.000467   -0.000000
   -2    2    1    3    4   -0.000602    0.000000   -0.000395    0.000000   -0.000832   -0.000000
   -2    2    1    4    4   -0.000000   -0.000000    0.000000    0.000000   -0.000000    0.000000
   -2    2    2    1    1   -0.000000    0.000000   -0.000000   -0.000000    0.000000   -0.000000
   -2    2    2    2    1    0.000046    0.000000   -0.000046   -0.000000    0.000020    0.000000
   -2    2    2    3    1   -0.000020   -0.000000   -0.000046    0.000000   -0.000046   -0.000000
   -2    2    2    4    1    0.000046   -0.000000    0.000020   -0.000000   -0.000046    0.000000
   -2    2    2    1    2   -0.000046    0.000000    0.000046   -0.000000   -0.000020    0.000000
   -2    2    2    2    2   -0.000000   -0.000000    0.000000   -0.000000   -0.000000   -0.000000
   -2    2    2    3    2   -0.000066    0.000000   -0.000000    0.000000   -0.000066   -0.000000
   -2    2    2    4    2   -0.000000   -0.000000    0.000066    0.000000   -0.000066   -0.000000
   -2    2    2    1    3    0.000020   -0.000000    0.000046    0.000000    0.000046   -0.000000
   -2    2    2    2    3    0.000066    0.000000    0.000000    0.000000    0.000066   -0.000000
   -2    2    2    3    3    0.000000    0.000000    0.000000   -0.000000    0.000000   -0.000000
   -2    2    2    4    3    0.000066   -0.000000    0.000066   -0.000000    0.000000    0.000000
   -2    2    2    1    4   -0.000046   -0.000000   -0.000020   -0.000000    0.000046    0.000000
   -2    2    2    2    4    0.000000   -0.000000   -0.000066    0.000000    0.000066   -0.000000
   -2    2    2    3    4   -0.000066   -0.000000   -0.000066   -0.000000   -0.000000    0.000000
   -2    2    2    4    4   -0.000000    0.000000    0.000000    0.000000    0.000000   -0.000000
   -1   -2    1    1    1    0.000000   -0.000000    0.000000   -0.000000   -0.000000    0.000000
   -1   -2    1    2    1    0.000572   -0.000000    0.000869    0.000000    0.001254   -0.000000
   -1   -2    1    3    1   -0.000755   -0.000000    0.000163    0.000000   -0.000678    0.000000
   -1   -2    1    4    1   -0.000318    0.000000   -0.000903    0.000000   -0.000667   -0.000000
   -1   -2    1    1    2    0.000510    0.000000    0.000476    0.000000    0.001094   -0.000000
   -1   -2    1    2    2   -0.000000    0.000000    0.000000   -0.000000   -0.000000    0.000000
   -1   -2    1    3    2    0.000533   -0.000000   -0.000769    0.000000   -0.000150   -0.000000
   -1   -2    1    4    2   -0.000047   -0.000000   -0.000019   -0.000000    0.000019   -0.000000
   -1   -2    1    1    3   -0.000274    0.000000    0.000678    0.000000   -0.000163   -0.000000
   -1   -2    1    2    3    0.000315   -0.000000   -0.000940    0.000000   -0.000554   -0.000000
   -1   -2    1    3    3    0.000000    0.000000    0.000000    0.000000   -0.000000   -0.000000
   -1   -2    1    4    3   -0.000341    0.000000    0.000341   -0.000000    0.000577    0.000000
   -1   -2    1    1    4   -0.000842   -0.000000   -0.000900    0.000000   -0.001223    0.000000
   -1   -2    1    2    4   -0.000141   -0.000000   -0.000018   -0.000000    0.000018   -0.000000
   -1   -2    1    3    4   -0.000585    0.000000    0.000908   -0.000000    0.000586    0.000000
   -1   -2    1    4    4    0.000000    0.000000    0.000000    0.000000   -0.000000   -0.000000
   -1   -2    2    1    1    0.000000   -0.000000    0.000000   -0.000000   -0.000000    0.000000
   -1   -2    2    2    1    0.000318    0.000000    0.000667   -0.000000    0.000903   -0.000000
   -1   -2    2    3    1   -0.000903    0.000000    0.000667   -0.000000   -0.000318    0.000000
   -1   -2    2    4    1   -0.000046   -0.000000   -0.000020   -0.000000    0.000046    0.000000
   -1   -2    2    1    2    0.000826    0.000000    0.000614    0.000000    0.001239   -0.000000
   -1   -2    2    2    2   -0.000000    0.000000    0.000000   -0.000000    0.000000   -0.000000
   -1   -2    2    3    2   -0.000248   -0.000000   -0.000344   -0.000000   -0.000749   -0.000000
   -1   -2    2    4    2   -0.000738    0.000000   -0.000483    0.000000   -0.000483    0.000000
   -1   -2    2    1    3   -0.001239   -0.000000    0.000614   -0.000000   -0.000826    0.000000
   -1   -2    2    2    3    0.000749   -0.000000   -0.000344   -0.000000    0.000248    0.000000
   -1   -2    2    3    3   -0.000000    0.000000   -0.000000    0.000000    0.000000   -0.000000
   -1   -2    2    4    3    0.000483   -0.000000   -0.000483    0.000000    0.000738   -0.000000
   -1   -2    2    1    4   -0.000092   -0.000000   -0.000067   -0.000000    0.000092   -0.000000
   -1   -2    2    2    4   -0.000999    0.000000   -0.000743    0.000000   -0.001066    0.000000
   -1   -2    2    3    4    0.001066    0.000000   -0.000743    0.000000    0.000999   -0.000000
   -1   -2    2    4    4    0.000000   -0.000000    0.000000    0.000000   -0.000000    0.000000
   -1   -1   -1    1    1    0.000000   -0.000000   -0.000000    0.000000   -0.000000    0.000000
   -1   -1   -1    2    1    0.000965    0.000000   -0.000965   -0.000000    0.001934    0.000000
   -1   -1   -1    3    1   -0.001934   -0.000000   -0.000965   -0.000000   -0.000965   -0.000000
   -1   -1   -1    4    1    0.000965   -0.000000    0.001934    0.000000   -0.000965    0.000000
   -1   -1   -1    1    2   -0.000151    0.000000    0.000151    0.000000    0.001468    0.000000
   -1   -1   -1    2    2    0.000000   -0.000000   -0.000000   -0.000000    0.000000    0.000000
   -1   -1   -1    3    2   -0.001217    0.000000   -0.001681   -0.000000   -0.000364    0.000000
   -1   -1   -1    4    2    0.001681    0.000000    0.001217   -0.000000   -0.000364    0.000000
   -1   -1   -1    1    3   -0.001468    0.000000    0.000151    0.000000    0.000151   -0.000000
   -1   -1   -1    2    3    0.000364    0.000000   -0.001681   -0.000000    0.001217    0.000000
   -1   -1   -1    3    3   -0.000000   -0.000000   -0.000000   -0.000000   -0.000000   -0.000000
   -1   -1   -1    4    3    0.000364   -0.000000    0.001217    0.000000   -0.001681    0.000000
   -1   -1   -1    1    4   -0.000151    0.000000    0.001468   -0.000000    0.000151   -0.000000
   -1   -1   -1    2    4    0.001681    0.000000   -0.000364    0.000000    0.001217   -0.000000
   -1   -1   -1    3    4   -0.001217   -0.000000   -0.000364   -0.000000   -0.001681   -0.000000
   -1   -1   -1    4    4    0.000000   -0.000000    0.000000   -0.000000   -0.000000    0.000000
   -1   -1    0    1    1    0.000000   -0.000000   -0.000000   -0.000000    0.000000   -0.000000
   -1   -1    0    2    1   -0.000949   -0.000000    0.000949    0.000000    0.002102    0.000000
   -1   -1    0    3    1   -0.000395    0.000000   -0.000009   -0.000000    0.000062   -0.000000
   -1   -1    0    4    1    0.000009    0.000000    0.000395    0.000000    0.000062    0.000000
   -1   -1    0    1    2   -0.001190    0.000000    0.001190   -0.000000    0.003723    0.000000
   -1   -1    0    2    2   -0.000000    0.000000    0.000000   -0.000000   -0.000000    0.000000
   -1   -1    0    3    2    0.000514   -0.000000   -0.000515    0.000000   -0.001175    0.000000
   -1   -1    0    4    2    0.000515   -0.000000   -0.000514    0.000000   -0.001175   -0.000000
   -1   -1    0    1    3   -0.000997    0.000000   -0.002287    0.000000   -0.000201    0.000000
   -1   -1    0    2    3    0.000666    0.000000   -0.001080    0.000000   -0.001519   -0.000000
   -1   -1    0    3    3    0.000000   -0.000000    0.000000   -0.000000    0.000000   -0.000000
   -1   -1    0    4    3   -0.000773    0.000000    0.000372   -0.000000    0.001594   -0.000000
   -1   -1    0    1    4    0.002287    0.000000    0.000997    0.000000   -0.000201    0.000000
   -1   -1    0    2    4    0.001080   -0.000000   -0.000666   -0.000000   -0.001519   -0.000000
   -1   -1    0    3    4   -0.000372    0.000000    0.000773    0.000000    0.001594    0.000000
   -1   -1    0    4    4   -0.000000    0.000000   -0.000000   -0.000000    0.000000    0.000000
   -1   -1    1    1    1    0.000000   -0.000000   -0.000000    0.000000    0.000000   -0.000000
   -1   -1    1    2    1   -0.002464    0.000000    0.002464    0.000000    0.002103    0.000000
   -1   -1    1    3    1    0.000755    0.000000    0.000678    0.000000   -0.000163    0.000000
   -1   -1    1    4    1   -0.000678    0.000000   -0.000755   -0.000000   -0.000163    0.000000
   -1   -1    1    1    2    0.001232    0.000000   -0.001232   -0.000000    0.002113    0.000000
   -1   -1    1    2    2   -0.000000    0.000000    0.000000   -0.000000    0.000000   -0.000000
   -1   -1    1    3    2    0.000777   -0.000000    0.000657   -0.000000   -0.000753   -0.000000
   -1   -1    1    4    2   -0.000657   -0.000000   -0.000777    0.000000   -0.000753    0.000000
   -1   -1    1    1    3    0.000248    0.000000    0.003866   -0.000000   -0.001322    0.000000
   -1   -1    1    2    3    0.003883   -0.000000    0.000231   -0.000000   -0.002403    0.000000
   -1   -1    1    3    3   -0.000000    0.000000   -0.000000    0.000000   -0.000000   -0.000000
   -1   -1    1    4    3   -0.000891   -0.000000   -0.000615   -0.000000    0.003380    0.000000
   -1   -1    1    1    4   -0.003866    0.000000   -0.000248    0.000000   -0.001322    0.000000
   -1   -1    1    2    4   -0.000231    0.000000   -0.003883    0.000000   -0.002403   -0.000000
   -1   -1    1    3    4    0.000615   -0.000000    0.000891   -0.000000    0.003380   -0.000000
   -1   -1    1    4    4    0.000000    0.000000    0.000000    0.000000    0.000000   -0.000000
   -1   -1    2    1    1    0.000000    0.000000   -0.000000    0.000000   -0.000000    0.000000
   -1   -1    2    2    1    0.000483    0.000000   -0.000483   -0.000000    0.003512    0.000000
   -1   -1    2    3    1   -0.000778   -0.000000    0.000777    0.000000   -0.001287   -0.000000
   -1   -1    2    4    1   -0.000777    0.000000    0.000778   -0.000000   -0.001287   -0.000000
   -1   -1    2    1    2    0.001166    0.000000   -0.001166   -0.000000    0.001853   -0.000000
   -1   -1    2    2    2   -0.000000   -0.000000    0.000000    0.000000    0.000000    0.000000
   -1   -1    2    3    2   -0.000146    0.000000   -0.000258   -0.000000    0.000146    0.000000
   -1   -1    2    4    2    0.000258   -0.000000    0.000146   -0.000000    0.000146    0.000000
   -1   -1    2    1    3   -0.001549   -0.000000    0.001135   -0.000000   -0.002013    0.000000
   -1   -1    2    2    3   -0.002213   -0.000000   -0.001071   -0.000000   -0.000379    0.000000
   -1   -1    2    3    3    0.000000    0.000000    0.000000    0.000000   -0.000000    0.000000
   -1   -1    2    4    3    0.000818    0.000000   -0.001219    0.000000    0.001922   -0.000000
   -1   -1    2    1    4   -0.001135   -0.000000    0.001549   -0.000000   -0.002013    0.000000
   -1   -1    2    2    4    0.001071   -0.000000    0.002213    0.000000   -0.000379   -0.000000
   -1   -1    2    3    4    0.001219   -0.000000   -0.000818    0.000000    0.001922   -0.000000
   -1   -1    2    4    4   -0.000000    0.000000   -0.000000   -0.000000   -0.000000   -0.000000
   -1   -1    3    1    1    0.000000   -0.000000   -0.000000    0.000000   -0.000000    0.000000
   -1   -1    3    2    1    0.000965    0.000000   -0.000965   -0.000000    0.001934    0.000000
   -1   -1    3    3    1   -0.001934   -0.000000   -0.000965   -0.000000   -0.000965   -0.000000
   -1   -1    3    4    1    0.000965   -0.000000    0.001934    0.000000   -0.000965    0.000000
   -1   -1    3    1    2   -0.000151    0.000000    0.000151    0.000000    0.001468    0.000000
   -1   -1    3    2    2    0.000000   -0.000000   -0.000000   -0.000000    0.000000    0.000000
   -1   -1    3    3    2   -0.001217    0.000000   -0.001681   -0.000000   -0.000364    0.000000
   -1   -1    3    4    2    0.001681    0.000000    0.001217   -0.000000   -0.000364    0.000000
   -1   -1    3    1    3   -0.001468    0.000000    0.000151    0.000000    0.000151   -0.000000
   -1   -1    3    2    3    0.000364    0.000000   -0.001681   -0.000000    0.001217    0.000000
   -1   -1    3    3    3   -0.000000   -0.000000   -0.000000   -0.000000   -0.000000   -0.000000
   -1   -1    3    4    3    0.000364   -0.000000    0.001217    0.000000   -0.001681    0.000000
   -1   -1    3    1    4   -0.000151    0.000000    0.001468   -0.000000    0.000151   -0.000000
   -1   -1    3    2    4    0.001681    0.000000   -0.000364    0.000000    0.001217   -0.000000
   -1   -1    3    3    4   -0.001217   -0.000000   -0.000364   -0.000000   -0.001681   -0.000000
   -1   -1    3    4    4    0.000000   -0.000000    0.000000   -0.000000   -0.000000    0.000000
   -1    0   -1    1    1   -0.000000   -0.000000    0.000000   -0.000000   -0.000000   -0.000000
   -1    0   -1    2    1   -0.000062   -0.000000   -0.000009   -0.000000    0.000395   -0.000000
   -1    0   -1    3    1   -0.002102    0.000000    0.000949   -0.000000    0.000949   -0.000000
   -1    0   -1    4    1   -0.000062   -0.000000    0.000395    0.000000   -0.000009    0.000000
   -1    0   -1    1    2    0.000201    0.000000   -0.002287    0.000000    0.000997   -0.000000
   -1    0   -1    2    2   -0.000000    0.000000   -0.000000   -0.000000   -0.000000    0.000000
   -1    0   -1    3    2    0.001519   -0.000000   -0.001080   -0.000000   -0.000666   -0.000000
   -1    0   -1    4    2   -0.001594    0.000000    0.000372    0.000000    0.000773   -0.000000
   -1    0   -1    1    3   -0.003723   -0.000000    0.001190    0.000000    0.001190    0.000000
   -1    0   -1    2    3    0.001175    0.000000   -0.000515    0.000000   -0.000514   -0.000000
   -1    0   -1    3    3    0.000000   -0.000000    0.000000   -0.000000    0.000000   -0.000000
   -1    0   -1    4    3    0.001175    0.000000   -0.000514   -0.000000   -0.000515   -0.000000
   -1    0   -1    1    4    0.000201    0.000000    0.000997   -0.000000   -0.002287   -0.000000
   -1    0   -1    2    4   -0.001594   -0.000000    0.000773   -0.000000    0.000372   -0.000000
   -1    0   -1    3    4    0.001519    0.000000   -0.000666    0.000000   -0.001080    0.000000
   -1    0   -1    4    4    0.000000   -0.000000   -0.000000   -0.000000    0.000000   -0.000000
   -1    0    0    1    1   -0.000000   -0.000000    0.000000   -0.000000   -0.000000   -0.000000
   -1    0    0    2    1    0.000337    0.000000    0.002660   -0.000000   -0.003198    0.000000
   -1    0    0    3    1    0.003198    0.000000    0.002660   -0.000000   -0.000337   -0.000000
   -1    0    0    4    1   -0.010261    0.000000   -0.004730    0.000000    0.010261   -0.000000
   -1    0    0    1    2    0.001619    0.000000   -0.008720   -0.000000    0.005835   -0.000000
   -1    0    0    2    2    0.000000   -0.000000   -0.000000    0.000000    0.000000   -0.000000
   -1    0    0    3    2    0.003120   -0.000000   -0.000566   -0.000000   -0.003120    0.000000
   -1    0    0    4    2   -0.000599   -0.000000    0.001993   -0.000000   -0.002262   -0.000000
   -1    0    0    1    3   -0.005835    0.000000   -0.008720    0.000000   -0.001619    0.000000
   -1    0    0    2    3    0.003120   -0.000000   -0.000566   -0.000000   -0.003120    0.000000
   -1    0    0    3    3   -0.000000    0.000000    0.000000   -0.000000   -0.000000    0.000000
   -1    0    0    4    3    0.002262   -0.000000    0.001993    0.000000    0.000599    0.000000
   -1    0    0    1    4   -0.028413    0.000000    0.077425   -0.000000    0.028413    0.000000
   -1    0    0    2    4   -0.002981    0.000000   -0.000394    0.000000    0.010436   -0.000000
   -1    0    0    3    4   -0.010436   -0.000000   -0.000394   -0.000000    0.002981   -0.000000
   -1    0    0    4    4   -0.000000    0.000000    0.000000   -0.000000   -0.000000    0.000000
   -1    0    1    1    1   -0.000000   -0.000000   -0.000000    0.000000   -0.000000    0.000000
   -1    0    1    2    1   -0.011106    0.000000    0.004006   -0.000000    0.003652    0.000000
   -1    0    1    3    1   -0.000566   -0.000000    0.003121    0.000000   -0.002067    0.000000
   -1    0    1    4    1    0.003253    0.000000   -0.001858    0.000000   -0.001167   -0.000000
   -1    0    1    1    2    0.003062    0.000000   -0.000065   -0.000000   -0.002960   -0.000000
   -1    0    1    2    2    0.000000   -0.000000    0.000000    0.000000    0.000000    0.000000
   -1    0    1    3    2    0.002996   -0.000000    0.002862   -0.000000   -0.000033    0.000000
   -1    0    1    4    2   -0.007789    0.000000   -0.007201   -0.000000    0.006033    0.000000
   -1    0    1    1    3   -0.000566   -0.000000    0.003121   -0.000000   -0.002067   -0.000000
   -1    0    1    2    3   -0.011574   -0.000000   -0.002982   -0.000000   -0.003335   -0.000000
   -1    0    1    3    3    0.000000    0.000000    0.000000    0.000000    0.000000    0.000000
   -1    0    1    4    3    0.003187   -0.000000    0.001069    0.000000    0.001760   -0.000000
   -1    0    1    1    4   -0.001966   -0.000000   -0.001409    0.000000    0.009066    0.000000
   -1    0    1    2    4    0.074702   -0.000000   -0.025690   -0.000000    0.043829   -0.000000
   -1    0    1    3    4   -0.002433    0.000000   -0.008396    0.000000    0.002079   -0.000000
   -1    0    1    4    4    0.000000   -0.000000   -0.000000    0.000000   -0.000000    0.000000
   -1    0    2    1    1   -0.000000   -0.000000   -0.000000    0.000000   -0.000000    0.000000
   -1    0    2    2    1   -0.003253   -0.000000    0.001167   -0.000000    0.001858   -0.000000
   -1    0    2    3    1   -0.001726   -0.000000    0.002164    0.000000   -0.000984   -0.000000
   -1    0    2    4    1    0.000911   -0.000000   -0.002133   -0.000000    0.001008    0.000000
   -1    0    2    1    2    0.000088    0.000000   -0.000159    0.000000    0.000244    0.000000
   -1    0    2    2    2    0.000000   -0.000000    0.000000   -0.000000    0.000000    0.000000
   -1    0    2    3    2    0.000531    0.000000   -0.001684   -0.000000    0.001334    0.000000
   -1    0    2    4    2    0.000333    0.000000   -0.000000   -0.000000    0.000000   -0.000000
   -1    0    2    1    3   -0.000542   -0.000000    0.001202   -0.000000   -0.000862   -0.000000
   -1    0    2    2    3    0.000223   -0.000000   -0.002757    0.000000    0.001238    0.000000
   -1    0    2    3    3   -0.000000    0.000000   -0.000000    0.000000   -0.000000   -0.000000
   -1    0    2    4    3   -0.000698    0.000000    0.001359    0.000000   -0.000707    0.000000
   -1    0    2    1    4    0.000734    0.000000   -0.001555    0.000000    0.001185    0.000000
   -1    0    2    2    4    0.001621    0.000000   -0.000423    0.000000   -0.003015   -0.000000
   -1    0    2    3    4   -0.001217   -0.000000    0.002070   -0.000000   -0.001492    0.000000
   -1    0    2    4    4    0.000000    0.000000   -0.000000    0.000000   -0.000000    0.000000
   -1    1   -2    1    1   -0.000000    0.000000   -0.000000    0.000000   -0.000000    0.000000
   -1    1   -2    2    1    0.000678   -0.000000    0.000163   -0.000000    0.000755   -0.000000
   -1    1   -2    3    1   -0.001254    0.000000    0.000869   -0.000000   -0.000572   -0.000000
   -1    1   -2    4    1    0.000667   -0.000000   -0.000903   -0.000000    0.000318    0.000000
   -1    1   -2    1    2    0.000163   -0.000000    0.000678    0.000000    0.000274   -0.000000
   -1    1   -2    2    2    0.000000    0.000000    0.000000    0.000000   -0.000000    0.000000
   -1    1   -2    3    2    0.000554   -0.000000   -0.000940    0.000000   -0.000315   -0.000000
   -1    1   -2    4    2   -0.000577   -0.000000    0.000341   -0.000000    0.000341   -0.000000
   -1    1   -2    1    3   -0.001094   -0.000000    0.000476   -0.000000   -0.000510    0.000000
   -1    1   -2    2    3    0.000150   -0.000000   -0.000769    0.000000   -0.000533   -0.000000
   -1    1   -2    3    3    0.000000   -0.000000    0.000000   -0.000000   -0.000000   -0.000000
   -1    1   -2    4    3   -0.000019    0.000000   -0.000019   -0.000000    0.000047    0.000000
   -1    1   -2    1    4    0.001223    0.000000   -0.000900   -0.000000    0.000842    0.000000
   -1    1   -2    2    4   -0.000586   -0.000000    0.000908    0.000000    0.000585    0.000000
   -1    1   -2    3    4   -0.000018   -0.000000   -0.000018    0.000000    0.000141    0.000000
   -1    1   -2    4    4   -0.000000    0.000000   -0.000000    0.000000    0.000000   -0.000000
   -1    1   -1    1    1   -0.000000   -0.000000   -0.000000    0.000000   -0.000000   -0.000000
   -1    1   -1    2    1    0.000163   -0.000000    0.000678    0.000000   -0.000755   -0.000000
   -1    1   -1    3    1   -0.002103    0.000000    0.002464   -0.000000    0.002464   -0.000000
   -1    1   -1    4    1    0.000163   -0.000000   -0.000755    0.000000    0.000678   -0.000000
   -1    1   -1    1    2    0.001322    0.000000    0.003866   -0.000000   -0.000248   -0.000000
   -1    1   -1    2    2   -0.000000   -0.000000    0.000000   -0.000000   -0.000000   -0.000000
   -1    1   -1    3    2    0.002403   -0.000000    0.000231    0.000000   -0.003883    0.000000
   -1    1   -1    4    2   -0.003380    0.000000   -0.000615    0.000000    0.000891    0.000000
   -1    1   -1    1    3   -0.002113   -0.000000   -0.001232   -0.000000   -0.001232    0.000000
   -1    1   -1    2    3    0.000753   -0.000000    0.000657    0.000000   -0.000777    0.000000
   -1    1   -1    3    3   -0.000000   -0.000000   -0.000000   -0.000000   -0.000000   -0.000000
   -1    1   -1    4    3    0.000753    0.000000   -0.000777    0.000000    0.000657   -0.000000
   -1    1   -1    1    4    0.001322    0.000000   -0.000248   -0.000000    0.003866    0.000000
   -1    1   -1    2    4   -0.003380    0.000000    0.000891    0.000000   -0.000615    0.000000
   -1    1   -1    3    4    0.002403    0.000000   -0.003883   -0.000000    0.000231   -0.000000
   -1    1   -1    4    4    0.000000   -0.000000    0.000000    0.000000   -0.000000   -0.000000
   -1    1    0    1    1    0.000000    0.000000   -0.000000   -0.000000   -0.000000   -0.000000
   -1    1    0    2    1    0.002067    0.000000    0.003121   -0.000000    0.000566    0.000000
   -1    1    0    3    1   -0.003652    0.000000    0.004006    0.000000    0.011106    0.000000
   -1    1    0    4    1    0.001167   -0.000000   -0.001858    0.000000   -0.003253    0.000000
   -1    1    0    1    2    0.002067    0.000000    0.003121    0.000000    0.000566    0.000000
   -1    1    0    2    2   -0.000000    0.000000    0.000000   -0.000000    0.000000   -0.000000
   -1    1    0    3    2    0.003335   -0.000000   -0.002982    0.000000    0.011574   -0.000000
   -1    1    0    4    2   -0.001760    0.000000    0.001069   -0.000000   -0.003187    0.000000
   -1    1    0    1    3    0.002960   -0.000000   -0.000065   -0.000000   -0.003062    0.000000
   -1    1    0    2    3    0.000033   -0.000000    0.002862    0.000000   -0.002996   -0.000000
   -1    1    0    3    3    0.000000    0.000000   -0.000000   -0.000000    0.000000    0.000000
   -1    1    0    4    3   -0.006033   -0.000000   -0.007201   -0.000000    0.007789   -0.000000
   -1    1    0    1    4   -0.009066   -0.000000   -0.001409    0.000000    0.001966   -0.000000
   -1    1    0    2    4   -0.002079    0.000000   -0.008396   -0.000000    0.002433    0.000000
   -1    1    0    3    4   -0.043829   -0.000000   -0.025690    0.000000   -0.074702   -0.000000
   -1    1    0    4    4    0.000000   -0.000000   -0.000000    0.000000    0.000000    0.000000
   -1    1    1    1    1    0.000000    0.000000   -0.000000    0.000000   -0.000000    0.000000
   -1    1    1    2    1    0.003121    0.000000    0.002067   -0.000000   -0.000566   -0.000000
   -1    1    1    3    1    0.000566   -0.000000    0.002067    0.000000   -0.003121    0.000000
   -1    1    1    4    1   -0.000483   -0.000000   -0.003512   -0.000000    0.000483   -0.000000
   -1    1    1    1    2    0.000527    0.000000    0.000314    0.000000   -0.001096    0.000000
   -1    1    1    2    2    0.000000    0.000000   -0.000000   -0.000000    0.000000    0.000000
   -1    1    1    3    2    0.001274   -0.000000   -0.000913   -0.000000    0.002432   -0.000000
   -1    1    1    4    2   -0.000897    0.000000    0.000305   -0.000000    0.000329   -0.000000
   -1    1    1    1    3    0.001096   -0.000000    0.000314   -0.000000   -0.000527   -0.000000
   -1    1    1    2    3   -0.002432   -0.000000   -0.000913    0.000000   -0.001274    0.000000
   -1    1    1    3    3   -0.000000    0.000000    0.000000   -0.000000   -0.000000    0.000000
   -1    1    1    4    3   -0.000329    0.000000    0.000305    0.000000    0.000897   -0.000000
   -1    1    1    1    4   -0.000507    0.000000   -0.001981    0.000000    0.000507    0.000000
   -1    1    1    2    4    0.000513    0.000000    0.000562   -0.000000    0.002042    0.000000
   -1    1    1    3    4   -0.002042    0.000000    0.000562    0.000000   -0.000513   -0.000000
   -1    1    1    4    4    0.000000    0.000000    0.000000    0.000000   -0.000000    0.000000
   -1    1    2    1    1   -0.000000    0.000000   -0.000000    0.000000   -0.000000    0.000000
   -1    1    2    2    1    0.000678   -0.000000    0.000163   -0.000000    0.000755   -0.000000
   -1    1    2    3    1   -0.001254    0.000000    0.000869   -0.000000   -0.000572   -0.000000
   -1    1    2    4    1    0.000667   -0.000000   -0.000903   -0.000000    0.000318    0.000000
   -1    1    2    1    2    0.000163   -0.000000    0.000678    0.000000    0.000274   -0.000000
   -1    1    2    2    2    0.000000    0.000000    0.000000    0.000000   -0.000000    0.000000
   -1    1    2    3    2    0.000554   -0.000000   -0.000940    0.000000   -0.000315   -0.000000
   -1    1    2    4    2   -0.000577   -0.000000    0.000341   -0.000000    0.000341   -0.000000
   -1    1    2    1    3   -0.001094   -0.000000    0.000476   -0.000000   -0.000510    0.000000
   -1    1    2    2    3    0.000150   -0.000000   -0.000769    0.000000   -0.000533   -0.000000
   -1    1    2    3    3    0.000000   -0.000000    0.000000   -0.000000   -0.000000   -0.000000
   -1    1    2    4    3   -0.000019    0.000000   -0.000019   -0.000000    0.000047    0.000000
   -1    1    2    1    4    0.001223    0.000000   -0.000900   -0.000000    0.000842    0.000000
   -1    1    2    2    4   -0.000586   -0.000000    0.000908    0.000000    0.000585    0.000000
   -1    1    2    3    4   -0.000018   -0.000000   -0.000018    0.000000    0.000141    0.000000
   -1    1    2    4    4   -0.000000    0.000000   -0.000000    0.000000    0.000000   -0.000000
   -1    2   -2    1    1    0.000000   -0.000000    0.000000   -0.000000   -0.000000    0.000000
   -1    2   -2    2    1    0.000318    0.000000    0.000667   -0.000000    0.000903   -0.000000
   -1    2   -2    3    1   -0.000903    0.000000    0.000667   -0.000000   -0.000318    0.000000
   -1    2   -2    4    1   -0.000046   -0.000000   -0.000020   -0.000000    0.000046    0.000000
   -1    2   -2    1    2    0.000826    0.000000    0.000614    0.000000    0.001239   -0.000000
   -1    2   -2    2    2   -0.000000    0.000000    0.000000   -0.000000    0.000000   -0.000000
   -1    2   -2    3    2   -0.000248   -0.000000   -0.000344   -0.000000   -0.000749   -0.000000
   -1    2   -2    4    2   -0.000738    0.000000   -0.000483    0.000000   -0.000483    0.000000
   -1    2   -2    1    3   -0.001239   -0.000000    0.000614   -0.000000   -0.000826    0.000000
   -1    2   -2    2    3    0.000749   -0.000000   -0.000344   -0.000000    0.000248    0.000000
   -1    2   -2    3    3   -0.000000    0.000000   -0.000000    0.000000    0.000000   -0.000000
   -1    2   -2    4    3    0.000483   -0.000000   -0.000483    0.000000    0.000738   -0.000000
   -1    2   -2    1    4   -0.000092   -0.000000   -0.000067   -0.000000    0.000092   -0.000000
   -1    2   -2    2    4   -0.000999    0.000000   -0.000743    0.000000   -0.001066    0.000000
   -1    2   -2    3    4    0.001066    0.000000   -0.000743    0.000000    0.000999   -0.000000
   -1    2   -2    4    4    0.000000   -0.000000    0.000000    0.000000   -0.000000    0.000000
   -1    2   -1    1    1    0.000000    0.000000   -0.000000   -0.000000   -0.000000   -0.000000
   -1    2   -1    2    1    0.001287    0.000000    0.000777    0.000000    0.000778   -0.000000
   -1    2   -1    3    1   -0.003512    0.000000   -0.000483   -0.000000   -0.000483   -0.000000
   -1    2   -1    4    1    0.001287   -0.000000    0.000778   -0.000000    0.000777    0.000000
   -1    2   -1    1    2    0.002013   -0.000000    0.001135   -0.000000    0.001549    0.000000
   -1    2   -1    2    2   -0.000000    0.000000    0.000000   -0.000000    0.000000   -0.000000
   -1    2   -1    3    2    0.000379   -0.000000   -0.001071    0.000000    0.002213    0.000000
   -1    2   -1    4    2   -0.001922   -0.000000   -0.001219   -0.000000   -0.000818    0.000000
   -1    2   -1    1    3   -0.001853   -0.000000   -0.001166   -0.000000   -0.001166    0.000000
   -1    2   -1    2    3   -0.000146    0.000000   -0.000258   -0.000000    0.000146    0.000000
   -1    2   -1    3    3    0.000000    0.000000    0.000000   -0.000000    0.000000   -0.000000
   -1    2   -1    4    3   -0.000146    0.000000    0.000146    0.000000   -0.000258   -0.000000
   -1    2   -1    1    4    0.002013    0.000000    0.001549    0.000000    0.001135    0.000000
   -1    2   -1    2    4   -0.001922   -0.000000   -0.000818   -0.000000   -0.001219    0.000000
   -1    2   -1    3    4    0.000379    0.000000    0.002213    0.000000   -0.001071   -0.000000
   -1    2   -1    4    4   -0.000000    0.000000   -0.000000   -0.000000    0.000000   -0.000000
   -1    2    0    1    1    0.000000    0.000000   -0.000000   -0.000000    0.000000   -0.000000
   -1    2    0    2    1    0.000984   -0.000000    0.002164    0.000000    0.001726    0.000000
   -1    2    0    3    1   -0.001858   -0.000000    0.001167    0.000000    0.003253    0.000000
   -1    2    0    4    1   -0.001008    0.000000   -0.002133    0.000000   -0.000911    0.000000
   -1    2    0    1    2    0.000862    0.000000    0.001202    0.000000    0.000542   -0.000000
   -1    2    0    2    2    0.000000    0.000000   -0.000000   -0.000000    0.000000    0.000000
   -1    2    0    3    2   -0.001238   -0.000000   -0.002757   -0.000000   -0.000223   -0.000000
   -1    2    0    4    2    0.000707    0.000000    0.001359    0.000000    0.000698    0.000000
   -1    2    0    1    3   -0.000244   -0.000000   -0.000159   -0.000000   -0.000088    0.000000
   -1    2    0    2    3   -0.001334    0.000000   -0.001684   -0.000000   -0.000531    0.000000
   -1    2    0    3    3   -0.000000    0.000000    0.000000   -0.000000    0.000000    0.000000
   -1    2    0    4    3   -0.000000   -0.000000   -0.000000   -0.000000   -0.000333   -0.000000
   -1    2    0    1    4   -0.001185    0.000000   -0.001555    0.000000   -0.000734    0.000000
   -1    2    0    2    4    0.001492    0.000000    0.002070    0.000000    0.001217   -0.000000
   -1    2    0    3    4    0.003015    0.000000   -0.000423    0.000000   -0.001621   -0.000000
   -1    2    0    4    4   -0.000000   -0.000000    0.000000   -0.000000   -0.000000    0.000000
   -1    2    1    1    1    0.000000   -0.000000    0.000000   -0.000000   -0.000000    0.000000
   -1    2    1    2    1    0.000572   -0.000000    0.000869    0.000000    0.001254   -0.000000
   -1    2    1    3    1   -0.000755   -0.000000    0.000163    0.000000   -0.000678    0.000000
   -1    2    1    4    1   -0.000318    0.000000   -0.000903    0.000000   -0.000667   -0.000000
   -1    2    1    1    2    0.000510    0.000000    0.000476    0.000000    0.001094   -0.000000
   -1    2    1    2    2   -0.000000    0.000000    0.000000   -0.000000   -0.000000    0.000000
   -1    2    1    3    2    0.000533   -0.000000   -0.000769    0.000000   -0.000150   -0.000000
   -1    2    1    4    2   -0.000047   -0.000000   -0.000019   -0.000000    0.000019   -0.000000
   -1    2    1    1    3   -0.000274    0.000000    0.000678    0.000000   -0.000163   -0.000000
   -1    2    1    2    3    0.000315   -0.000000   -0.000940    0.000000   -0.000554   -0.000000
   -1    2    1    3    3    0.000000    0.000000    0.000000    0.000000   -0.000000   -0.000000
   -1    2    1    4    3   -0.000341    0.000000    0.000341   -0.000000    0.000577    0.000000
   -1    2    1    1    4   -0.000842   -0.000000   -0.000900    0.000000   -0.001223    0.000000
   -1    2    1    2    4   -0.000141   -0.000000   -0.000018   -0.000000    0.000018   -0.000000
   -1    2    1    3    4   -0.000585    0.000000    0.000908   -0.000000    0.000586    0.000000
   -1    2    1    4    4    0.000000    0.000000    0.000000    0.000000   -0.000000   -0.000000
   -1    3   -1    1    1    0.000000   -0.000000   -0.000000    0.000000   -0.000000    0.000000
   -1    3   -1    2    1    0.000965    0.000000   -0.000965   -0.000000    0.001934    0.000000
   -1    3   -1    3    1   -0.001934   -0.000000   -0.000965   -0.000000   -0.000965   -0.000000
   -1    3   -1    4    1    0.000965   -0.000000    0.001934    0.000000   -0.000965    0.000000
   -1    3   -1    1    2   -0.000151    0.000000    0.000151    0.000000    0.001468    0.000000
   -1    3   -1    2    2    0.000000   -0.000000   -0.000000   -0.000000    0.000000    0.000000
   -1    3   -1    3    2   -0.001217    0.000000   -0.001681   -0.000000   -0.000364    0.000000
   -1    3   -1    4    2    0.001681    0.000000    0.001217   -0.000000   -0.000364    0.000000
   -1    3   -1    1    3   -0.001468    0.000000    0.000151    0.000000    0.000151   -0.000000
   -1    3   -1    2    3    0.000364    0.000000   -0.001681   -0.000000    0.001217    0.000000
   -1    3   -1    3    3   -0.000000   -0.000000   -0.000000   -0.000000   -0.000000   -0.000000
   -1    3   -1    4    3    0.000364   -0.000000    0.001217    0.000000   -0.001681    0.000000
   -1    3   -1    1    4   -0.000151    0.000000    0.001468   -0.000000    0.000151   -0.000000
   -1    3   -1    2    4    0.001681    0.000000   -0.000364    0.000000    0.001217   -0.000000
   -1    3   -1    3    4   -0.001217   -0.000000   -0.000364   -0.000000   -0.001681   -0.000000
   -1    3   -1    4    4    0.000000   -0.000000    0.000000   -0.000000   -0.000000    0.000000
    0   -2    0    1    1    0.000000    0.000000   -0.000000    0.000000    0.000000   -0.000000
    0   -2    0    2    1   -0.000628   -0.000000   -0.002327   -0.000000   -0.001254    0.000000
    0   -2    0    3    1   -0.004730   -0.000000   -0.010261   -0.000000   -0.010261   -0.000000
    0   -2    0    4    1   -0.000628    0.000000   -0.001254    0.000000   -0.002327    0.000000
    0   -2    0    1    2    0.000665   -0.000000    0.001254    0.000000    0.002327   -0.000000
    0   -2    0    2    2    0.000000   -0.000000    0.000000    0.000000   -0.000000    0.000000
    0   -2    0    3    2    0.000558   -0.000000   -0.001781   -0.000000   -0.000708    0.000000
    0   -2    0    4    2    0.000123    0.000000   -0.000000   -0.000000    0.000000   -0.000000
    0   -2    0    1    3   -0.002923   -0.000000    0.010261   -0.000000    0.010261   -0.000000
    0   -2    0    2    3   -0.000521    0.000000    0.000708    0.000000    0.001781   -0.000000
    0   -2    0    3    3    0.000000   -0.000000   -0.000000    0.000000    0.000000    0.000000
    0   -2    0    4    3   -0.000521    0.000000    0.001781   -0.000000    0.000708    0.000000
    0   -2    0    1    4    0.000665    0.000000    0.002327    0.000000    0.001254    0.000000
    0   -2    0    2    4    0.000123   -0.000000   -0.000000   -0.000000    0.000000   -0.000000
    0   -2    0    3    4    0.000558    0.000000   -0.000708    0.000000   -0.001781   -0.000000
    0   -2    0    4    4   -0.000000   -0.000000    0.000000    0.000000   -0.000000    0.000000
    0   -2    1    1    1    0.000000   -0.000000    0.000000   -0.000000   -0.000000    0.000000
    0   -2    1    2    1    0.000628   -0.000000    0.002327   -0.000000    0.001254    0.000000
    0   -2    1    3    1    0.000395   -0.000000   -0.000062    0.000000    0.000009    0.000000
    0   -2    1    4    1   -0.000572    0.000000   -0.001254    0.000000   -0.000869   -0.000000
    0   -2    1    1    2    0.002023   -0.000000    0.000932   -0.000000    0.001327    0.000000
    0   -2    1    2    2    0.000000    0.000000   -0.000000    0.000000    0.000000   -0.000000
    0   -2    1    3    2    0.000010    0.000000    0.000323    0.000000    0.000110   -0.000000
    0   -2    1    4    2   -0.000950    0.000000   -0.000876   -0.000000   -0.000933    0.000000
    0   -2    1    1    3   -0.002220    0.000000    0.001577    0.000000   -0.001420    0.000000
    0   -2    1    2    3    0.001619   -0.000000   -0.002262   -0.000000    0.000599    0.000000
    0   -2    1    3    3   -0.000000    0.000000   -0.000000    0.000000    0.000000   -0.000000
    0   -2    1    4    3    0.001693   -0.000000    0.002316   -0.000000    0.001955   -0.000000
    0   -2    1    1    4   -0.001970    0.000000   -0.001895    0.000000   -0.001178   -0.000000
    0   -2    1    2    4   -0.001742    0.000000   -0.002123   -0.000000   -0.000968    0.000000
    0   -2    1    3    4    0.000996   -0.000000    0.001399   -0.000000    0.001902   -0.000000
    0   -2    1    4    4   -0.000000   -0.000000    0.000000    0.000000   -0.000000   -0.000000
    0   -2    2    1    1    0.000000   -0.000000   -0.000000   -0.000000   -0.000000   -0.000000
    0   -2    2    2    1    0.001008    0.000000    0.000911   -0.000000    0.002133    0.000000
    0   -2    2    3    1   -0.002133   -0.000000    0.000911   -0.000000   -0.001008   -0.000000
    0   -2    2    4    1   -0.000038   -0.000000    0.000161    0.000000    0.000038    0.000000
    0   -2    2    1    2   -0.002133    0.000000   -0.000821   -0.000000   -0.001008    0.000000
    0   -2    2    2    2    0.000000    0.000000   -0.000000   -0.000000   -0.000000    0.000000
    0   -2    2    3    2   -0.011700   -0.000000   -0.003290   -0.000000   -0.010627    0.000000
    0   -2    2    4    2   -0.001127   -0.000000   -0.000755    0.000000   -0.002015   -0.000000
    0   -2    2    1    3    0.001008   -0.000000   -0.000821   -0.000000    0.002133   -0.000000
    0   -2    2    2    3    0.010627    0.000000   -0.003290   -0.000000    0.011700   -0.000000
    0   -2    2    3    3    0.000000   -0.000000   -0.000000    0.000000   -0.000000   -0.000000
    0   -2    2    4    3    0.002015    0.000000   -0.000755    0.000000    0.001127    0.000000
    0   -2    2    1    4   -0.000038    0.000000    0.000161   -0.000000    0.000038   -0.000000
    0   -2    2    2    4    0.002015   -0.000000    0.000977    0.000000    0.001127   -0.000000
    0   -2    2    3    4   -0.001127    0.000000    0.000977    0.000000   -0.002015    0.000000
    0   -2    2    4    4    0.000000   -0.000000   -0.000000   -0.000000   -0.000000    0.000000
    0   -1   -1    1    1    0.000000   -0.000000    0.000000   -0.000000   -0.000000    0.000000
    0   -1   -1    2    1    0.000009   -0.000000    0.000062    0.000000    0.000395   -0.000000
    0   -1   -1    3    1   -0.000395    0.000000    0.000062   -0.000000   -0.000009    0.000000
    0   -1   -1    4    1   -0.000949    0.000000    0.002102    0.000000    0.000949    0.000000
    0   -1   -1    1    2    0.002287   -0.000000   -0.000201    0.000000    0.000997    0.000000
    0   -1   -1    2    2    0.000000    0.000000    0.000000   -0.000000    0.000000    0.000000
    0   -1   -1    3    2   -0.000372   -0.000000    0.001594   -0.000000    0.000773   -0.000000
    0   -1   -1    4    2    0.001080   -0.000000   -0.001519    0.000000   -0.000666   -0.000000
    0   -1   -1    1    3   -0.000997    0.000000   -0.000201    0.000000   -0.002287    0.000000
    0   -1   -1    2    3   -0.000773    0.000000    0.001594    0.000000    0.000372   -0.000000
    0   -1   -1    3    3    0.000000   -0.000000    0.000000   -0.000000    0.000000    0.000000
    0   -1   -1    4    3    0.000666    0.000000   -0.001519   -0.000000   -0.001080   -0.000000
    0   -1   -1    1    4   -0.001190    0.000000    0.003723   -0.000000    0.001190   -0.000000
    0   -1   -1    2    4    0.000515   -0.000000   -0.001175    0.000000   -0.000514   -0.000000
    0   -1   -1    3    4    0.000514    0.000000   -0.001175    0.000000   -0.000515    0.000000
    0   -1   -1    4    4    0.000000   -0.000000    0.000000   -0.000000    0.000000    0.000000
    0   -1    0    1    1    0.000000   -0.000000   -0.000000   -0.000000    0.000000    0.000000
    0   -1    0    2    1   -0.002660   -0.000000   -0.000337    0.000000   -0.003198   -0.000000
    0   -1    0    3    1    0.004730    0.000000    0.010261   -0.000000    0.010261   -0.000000
    0   -1    0    4    1   -0.002660   -0.000000   -0.003198    0.000000   -0.000337    0.000000
    0   -1    0    1    2    0.008720   -0.000000   -0.001619    0.000000    0.005835   -0.000000
    0   -1    0    2    2    0.000000    0.000000   -0.000000   -0.000000    0.000000    0.000000
    0   -1    0    3    2   -0.001993   -0.000000    0.000599    0.000000   -0.002262   -0.000000
    0   -1    0    4    2    0.000566   -0.000000   -0.003120    0.000000   -0.003120   -0.000000
    0   -1    0    1    3   -0.077425    0.000000    0.028413   -0.000000    0.028413   -0.000000
    0   -1    0    2    3    0.000394   -0.000000    0.002981   -0.000000    0.010436    0.000000
    0   -1    0    3    3   -0.000000   -0.000000   -0.000000    0.000000    0.000000   -0.000000
    0   -1    0    4    3    0.000394   -0.000000    0.010436    0.000000    0.002981   -0.000000
    0   -1    0    1    4    0.008720    0.000000    0.005835   -0.000000   -0.001619   -0.000000
    0   -1    0    2    4    0.000566   -0.000000   -0.003120    0.000000   -0.003120    0.000000
    0   -1    0    3    4   -0.001993   -0.000000   -0.002262   -0.000000    0.000599   -0.000000
    0   -1    0    4    4    0.000000    0.000000    0.000000    0.000000   -0.000000   -0.000000
    0   -1    1    1    1    0.000000   -0.000000   -0.000000   -0.000000   -0.000000    0.000000
    0   -1    1    2    1   -0.004006    0.000000    0.011106    0.000000    0.003652   -0.000000
    0   -1    1    3    1    0.001858    0.000000   -0.003253    0.000000   -0.001167   -0.000000
    0   -1    1    4    1   -0.003121    0.000000    0.000566   -0.000000   -0.002067   -0.000000
    0   -1    1    1    2    0.000065   -0.000000   -0.003062    0.000000   -0.002960   -0.000000
    0   -1    1    2    2    0.000000    0.000000   -0.000000   -0.000000   -0.000000   -0.000000
    0   -1    1    3    2    0.007201    0.000000    0.007789   -0.000000    0.006033    0.000000
    0   -1    1    4    2   -0.002862   -0.000000   -0.002996    0.000000   -0.000033    0.000000
    0   -1    1    1    3    0.001409    0.000000    0.001966    0.000000    0.009066    0.000000
    0   -1    1    2    3    0.025690    0.000000   -0.074702    0.000000    0.043829   -0.000000
    0   -1    1    3    3    0.000000    0.000000   -0.000000   -0.000000   -0.000000   -0.000000
    0   -1    1    4    3    0.008396   -0.000000    0.002433    0.000000    0.002079    0.000000
    0   -1    1    1    4   -0.003121    0.000000    0.000566   -0.000000   -0.002067   -0.000000
    0   -1    1    2    4    0.002982   -0.000000    0.011574    0.000000   -0.003335    0.000000
    0   -1    1    3    4   -0.001069   -0.000000   -0.003187    0.000000    0.001760    0.000000
    0   -1    1    4    4   -0.000000   -0.000000   -0.000000    0.000000    0.000000    0.000000
    0   -1    2    1    1   -0.000000    0.000000   -0.000000    0.000000   -0.000000   -0.000000
    0   -1    2    2    1   -0.001167   -0.000000    0.003253    0.000000    0.001858   -0.000000
    0   -1    2    3    1    0.002133   -0.000000   -0.000911   -0.000000    0.001008   -0.000000
    0   -1    2    4    1   -0.002164   -0.000000    0.001726    0.000000   -0.000984    0.000000
    0   -1    2    1    2    0.000159   -0.000000   -0.000088    0.000000    0.000244   -0.000000
    0   -1    2    2    2    0.000000   -0.000000    0.000000   -0.000000    0.000000    0.000000
    0   -1    2    3    2   -0.000000    0.000000   -0.000333    0.000000   -0.000000   -0.000000
    0   -1    2    4    2    0.001684    0.000000   -0.000531   -0.000000    0.001334    0.000000
    0   -1    2    1    3    0.001555   -0.000000   -0.000734   -0.000000    0.001185   -0.000000
    0   -1    2    2    3    0.000423   -0.000000   -0.001621   -0.000000   -0.003015    0.000000
    0   -1    2    3    3   -0.000000    0.000000   -0.000000    0.000000   -0.000000   -0.000000
    0   -1    2    4    3   -0.002070    0.000000    0.001217    0.000000   -0.001492    0.000000
    0   -1    2    1    4   -0.001202   -0.000000    0.000542   -0.000000   -0.000862    0.000000
    0   -1    2    2    4    0.002757    0.000000   -0.000223    0.000000    0.001238    0.000000
    0   -1    2    3    4   -0.001359   -0.000000    0.000698   -0.000000   -0.000707    0.000000
    0   -1    2    4    4    0.000000    0.000000    0.000000    0.000000   -0.000000   -0.000000
    0    0   -2    1    1    0.000000   -0.000000    0.000000   -0.000000   -0.000000    0.000000
    0    0   -2    2    1    0.010261   -0.000000   -0.010261    0.000000    0.004730    0.000000
    0    0   -2    3    1    0.001254    0.000000   -0.002327    0.000000    0.000628   -0.000000
    0    0   -2    4    1    0.002327   -0.000000   -0.001254   -0.000000    0.000628    0.000000
    0    0   -2    1    2   -0.010261   -0.000000    0.010261    0.000000    0.002923   -0.000000
    0    0   -2    2    2   -0.000000   -0.000000   -0.000000    0.000000   -0.000000    0.000000
    0    0   -2    3    2   -0.001781   -0.000000    0.000708   -0.000000    0.000521   -0.000000
    0    0   -2    4    2   -0.000708    0.000000    0.001781    0.000000    0.000521   -0.000000
    0    0   -2    1    3   -0.002327   -0.000000    0.001254   -0.000000   -0.000665    0.000000
    0    0   -2    2    3    0.000708    0.000000   -0.001781    0.000000   -0.000558   -0.000000
    0    0   -2    3    3    0.000000   -0.000000    0.000000    0.000000    0.000000    0.000000
    0    0   -2    4    3    0.000000    0.000000   -0.000000   -0.000000   -0.000123    0.000000
    0    0   -2    1    4   -0.001254    0.000000    0.002327    0.000000   -0.000665    0.000000
    0    0   -2    2    4    0.001781   -0.000000   -0.000708   -0.000000   -0.000558   -0.000000
    0    0   -2    3    4   -0.000000    0.000000    0.000000   -0.000000   -0.000123   -0.000000
    0    0   -2    4    4   -0.000000   -0.000000   -0.000000    0.000000    0.000000    0.000000
    0    0   -1    1    1    0.000000    0.000000    0.000000    0.000000   -0.000000    0.000000
    0    0   -1    2    1   -0.010261   -0.000000    0.010261   -0.000000   -0.004730   -0.000000
    0    0   -1    3    1    0.003198    0.000000   -0.000337   -0.000000    0.002660   -0.000000
    0    0   -1    4    1    0.000337   -0.000000   -0.003198    0.000000    0.002660   -0.000000
    0    0   -1    1    2   -0.028413   -0.000000    0.028413    0.000000    0.077425   -0.000000
    0    0   -1    2    2    0.000000    0.000000    0.000000    0.000000    0.000000    0.000000
    0    0   -1    3    2   -0.010436   -0.000000    0.002981    0.000000   -0.000394   -0.000000
    0    0   -1    4    2   -0.002981    0.000000    0.010436   -0.000000   -0.000394    0.000000
    0    0   -1    1    3   -0.005835    0.000000   -0.001619    0.000000   -0.008720   -0.000000
    0    0   -1    2    3    0.002262   -0.000000    0.000599   -0.000000    0.001993   -0.000000
    0    0   -1    3    3   -0.000000   -0.000000   -0.000000   -0.000000   -0.000000    0.000000
    0    0   -1    4    3    0.003120    0.000000   -0.003120   -0.000000   -0.000566   -0.000000
    0    0   -1    1    4    0.001619   -0.000000    0.005835   -0.000000   -0.008720    0.000000
    0    0   -1    2    4   -0.000599    0.000000   -0.002262   -0.000000    0.001993    0.000000
    0    0   -1    3    4    0.003120    0.000000   -0.003120    0.000000   -0.000566   -0.000000
    0    0   -1    4    4    0.000000    0.000000    0.000000    0.000000   -0.000000   -0.000000
    0    0    0    1    1   -0.000000    0.000000   -0.000000    0.000000    0.000000    0.000000
    0    0    0    2    1   -0.011769   -0.000000    0.011769    0.000000   -0.106762    0.000000
    0    0    0    3    1    0.106762    0.000000    0.011769   -0.000000    0.011769   -0.000000
    0    0    0    4    1   -0.011769    0.000000   -0.106762    0.000000    0.011769   -0.000000
    0    0    0    1    2   -0.011769    0.000000    0.011769   -0.000000   -0.106762   -0.000000
    0    0    0    2    2   -0.806995    0.000000    0.806995    0.000000   -0.000000    0.000000
    0    0    0    3    2    0.007532   -0.000000    0.111000   -0.000000   -0.007532    0.000000
    0    0    0    4    2   -0.111000    0.000000   -0.007532    0.000000   -0.007532    0.000000
    0    0    0    1    3    0.106762   -0.000000    0.011769    0.000000    0.011769    0.000000
    0    0    0    2    3    0.007532    0.000000    0.111000    0.000000   -0.007532   -0.000000
    0    0    0    3    3    0.000000    0.000000    0.806995    0.000000    0.806995    0.000000
    0    0    0    4    3    0.007532   -0.000000   -0.007532   -0.000000    0.111000   -0.000000
    0    0    0    1    4   -0.011769   -0.000000   -0.106762   -0.000000    0.011769    0.000000
    0    0    0    2    4   -0.111000   -0.000000   -0.007532   -0.000000   -0.007532   -0.000000
    0    0    0    3    4    0.007532    0.000000   -0.007532    0.000000    0.111000    0.000000
    0    0    0    4    4   -0.806995    0.000000    0.000000    0.000000    0.806995    0.000000
    0    0    1    1    1    0.000000   -0.000000    0.000000   -0.000000   -0.000000   -0.000000
    0    0    1    2    1    0.011769   -0.000000   -0.011769    0.000000    0.106762    0.000000
    0    0    1    3    1    0.003652   -0.000000   -0.011106   -0.000000   -0.004006    0.000000
    0    0    1    4    1    0.011106    0.000000   -0.003652   -0.000000   -0.004006   -0.000000
    0    0    1    1    2    0.004250    0.000000   -0.004250    0.000000   -0.006007   -0.000000
    0    0    1    2    2    0.000000   -0.000000    0.000000   -0.000000    0.000000   -0.000000
    0    0    1    3    2   -0.000238    0.000000    0.003098    0.000000    0.003201   -0.000000
    0    0    1    4    2   -0.003098    0.000000    0.000238   -0.000000    0.003201    0.000000
    0    0    1    1    3    0.002022   -0.000000    0.000839   -0.000000    0.002925    0.000000
    0    0    1    2    3   -0.007455    0.000000    0.000000   -0.000000   -0.007455    0.000000
    0    0    1    3    3   -0.000000    0.000000   -0.000000    0.000000   -0.000000   -0.000000
    0    0    1    4    3   -0.001292   -0.000000    0.001292    0.000000   -0.001341   -0.000000
    0    0    1    1    4   -0.000839   -0.000000   -0.002022   -0.000000    0.002925    0.000000
    0    0    1    2    4   -0.000000   -0.000000    0.007455    0.000000   -0.007455   -0.000000
    0    0    1    3    4   -0.001292   -0.000000    0.001292   -0.000000   -0.001341    0.000000
    0    0    1    4    4    0.000000   -0.000000    0.000000   -0.000000   -0.000000    0.000000
    0    0    2    1    1    0.000000    0.000000    0.000000    0.000000   -0.000000   -0.000000
    0    0    2    2    1    0.010261   -0.000000   -0.010261    0.000000    0.004730    0.000000
    0    0    2    3    1    0.001254    0.000000   -0.002327    0.000000    0.000628   -0.000000
    0    0    2    4    1    0.002327   -0.000000   -0.001254   -0.000000    0.000628    0.000000
    0    0    2    1    2   -0.010261   -0.000000    0.010261    0.000000    0.002923   -0.000000
    0    0    2    2    2   -0.000000    0.000000   -0.000000   -0.000000   -0.000000   -0.000000
    0    0    2    3    2   -0.001781   -0.000000    0.000708   -0.000000    0.000521   -0.000000
    0    0    2    4    2   -0.000708    0.000000    0.001781    0.000000    0.000521   -0.000000
    0    0    2    1    3   -0.002327   -0.000000    0.001254   -0.000000   -0.000665    0.000000
    0    0    2    2    3    0.000708    0.000000   -0.001781    0.000000   -0.000558   -0.000000
    0    0    2    3    3    0.000000    0.000000    0.000000   -0.000000    0.000000   -0.000000
    0    0    2    4    3    0.000000    0.000000   -0.000000   -0.000000   -0.000123    0.000000
    0    0    2    1    4   -0.001254    0.000000    0.002327    0.000000   -0.000665    0.000000
    0    0    2    2    4    0.001781   -0.000000   -0.000708   -0.000000   -0.000558   -0.000000
    0    0    2    3    4   -0.000000    0.000000    0.000000   -0.000000   -0.000123   -0.000000
    0    0    2    4    4   -0.000000    0.000000   -0.000000   -0.000000    0.000000   -0.000000
    0    1   -2    1    1   -0.000000   -0.000000   -0.000000   -0.000000   -0.000000    0.000000
    0    1   -2    2    1   -0.000009   -0.000000   -0.000062    0.000000   -0.000395    0.000000
    0    1   -2    3    1   -0.001254    0.000000    0.002327   -0.000000   -0.000628   -0.000000
    0    1   -2    4    1    0.000869   -0.000000   -0.001254    0.000000    0.000572    0.000000
    0    1   -2    1    2    0.001420   -0.000000    0.001577    0.000000    0.002220   -0.000000
    0    1   -2    2    2    0.000000    0.000000    0.000000    0.000000    0.000000   -0.000000
    0    1   -2    3    2   -0.000599    0.000000   -0.002262   -0.000000   -0.001619    0.000000
    0    1   -2    4    2   -0.001955   -0.000000    0.002316   -0.000000   -0.001693    0.000000
    0    1   -2    1    3   -0.001327   -0.000000    0.000932    0.000000   -0.002023   -0.000000
    0    1   -2    2    3   -0.000110   -0.000000    0.000323   -0.000000   -0.000010    0.000000
    0    1   -2    3    3   -0.000000   -0.000000   -0.000000   -0.000000   -0.000000    0.000000
    0    1   -2    4    3    0.000933    0.000000   -0.000876    0.000000    0.000950   -0.000000
    0    1   -2    1    4    0.001178   -0.000000   -0.001895   -0.000000    0.001970   -0.000000
    0    1   -2    2    4   -0.001902    0.000000    0.001399   -0.000000   -0.000996    0.000000
    0    1   -2    3    4    0.000968   -0.000000   -0.002123   -0.000000    0.001742    0.000000
    0    1   -2    4    4    0.000000   -0.000000    0.000000   -0.000000   -0.000000    0.000000
    0    1   -1    1    1    0.000000    0.000000   -0.000000    0.000000   -0.000000   -0.000000
    0    1   -1    2    1    0.001167   -0.000000   -0.003253   -0.000000   -0.001858   -0.000000
    0    1   -1    3    1   -0.003652   -0.000000    0.011106   -0.000000    0.004006   -0.000000
    0    1   -1    4    1    0.002067   -0.000000    0.000566    0.000000    0.003121    0.000000
    0    1   -1    1    2   -0.009066   -0.000000    0.001966   -0.000000   -0.001409    0.000000
    0    1   -1    2    2    0.000000   -0.000000   -0.000000    0.000000   -0.000000    0.000000
    0    1   -1    3    2   -0.043829   -0.000000   -0.074702   -0.000000   -0.025690    0.000000
    0    1   -1    4    2   -0.002079    0.000000    0.002433   -0.000000   -0.008396   -0.000000
    0    1   -1    1    3    0.002960   -0.000000   -0.003062   -0.000000   -0.000065    0.000000
    0    1   -1    2    3   -0.006033    0.000000    0.007789   -0.000000   -0.007201    0.000000
    0    1   -1    3    3    0.000000   -0.000000   -0.000000    0.000000   -0.000000    0.000000
    0    1   -1    4    3    0.000033    0.000000   -0.002996    0.000000    0.002862   -0.000000
    0    1   -1    1    4    0.002067   -0.000000    0.000566    0.000000    0.003121    0.000000
    0    1   -1    2    4   -0.001760    0.000000   -0.003187   -0.000000    0.001069   -0.000000
    0    1   -1    3    4    0.003335    0.000000    0.011574    0.000000   -0.002982   -0.000000
[...]
    2   -2    1    1    2    0.000019    0.000000   -0.000019    0.000000   -0.000048    0.000000
    2   -2    1    2    2    0.000000    0.000000   -0.000000   -0.000000   -0.000000    0.000000
    2   -2    1    3    2   -0.000325   -0.000000   -0.000896   -0.000000    0.000708    0.000000
    2   -2    1    4    2    0.000896    0.000000    0.000325    0.000000    0.000708    0.000000
    2   -2    1    1    3    0.000499    0.000000    0.000722    0.000000   -0.000263   -0.000000
    2   -2    1    2    3   -0.000707    0.000000   -0.001359   -0.000000    0.000467    0.000000
    2   -2    1    3    3   -0.000000   -0.000000    0.000000    0.000000   -0.000000    0.000000
    2   -2    1    4    3    0.000395   -0.000000    0.000602   -0.000000   -0.000832   -0.000000
    2   -2    1    1    4   -0.000722   -0.000000   -0.000499   -0.000000   -0.000263    0.000000
    2   -2    1    2    4    0.001359   -0.000000    0.000707    0.000000    0.000467   -0.000000
    2   -2    1    3    4   -0.000602    0.000000   -0.000395    0.000000   -0.000832   -0.000000
    2   -2    1    4    4   -0.000000   -0.000000    0.000000    0.000000   -0.000000    0.000000
    2   -2    2    1    1   -0.000000   -0.000000   -0.000000    0.000000    0.000000    0.000000
    2   -2    2    2    1    0.000046    0.000000   -0.000046   -0.000000    0.000020    0.000000
    2   -2    2    3    1   -0.000020   -0.000000   -0.000046    0.000000   -0.000046   -0.000000
    2   -2    2    4    1    0.000046   -0.000000    0.000020   -0.000000   -0.000046    0.000000
    2   -2    2    1    2   -0.000046    0.000000    0.000046   -0.000000   -0.000020    0.000000
    2   -2    2    2    2   -0.000000   -0.000000    0.000000    0.000000   -0.000000    0.000000
    2   -2    2    3    2   -0.000066    0.000000   -0.000000    0.000000   -0.000066   -0.000000
    2   -2    2    4    2   -0.000000   -0.000000    0.000066    0.000000   -0.000066   -0.000000
    2   -2    2    1    3    0.000020   -0.000000    0.000046    0.000000    0.000046   -0.000000
    2   -2    2    2    3    0.000066    0.000000    0.000000    0.000000    0.000066   -0.000000
    2   -2    2    3    3    0.000000   -0.000000    0.000000    0.000000    0.000000    0.000000
    2   -2    2    4    3    0.000066   -0.000000    0.000066   -0.000000    0.000000    0.000000
    2   -2    2    1    4   -0.000046   -0.000000   -0.000020   -0.000000    0.000046    0.000000
    2   -2    2    2    4    0.000000   -0.000000   -0.000066    0.000000    0.000066   -0.000000
    2   -2    2    3    4   -0.000066   -0.000000   -0.000066   -0.000000   -0.000000    0.000000
    2   -2    2    4    4   -0.000000   -0.000000    0.000000   -0.000000    0.000000   -0.000000
    2   -1   -2    1    1    0.000000    0.000000    0.000000   -0.000000    0.000000   -0.000000
    2   -1   -2    2    1   -0.000667   -0.000000   -0.000318    0.000000    0.000903    0.000000
    2   -1   -2    3    1    0.000020   -0.000000    0.000046   -0.000000    0.000046    0.000000
    2   -1   -2    4    1   -0.000667   -0.000000    0.000903   -0.000000   -0.000318   -0.000000
    2   -1   -2    1    2   -0.000614    0.000000   -0.000826   -0.000000    0.001239    0.000000
    2   -1   -2    2    2    0.000000   -0.000000    0.000000   -0.000000    0.000000   -0.000000
    2   -1   -2    3    2    0.000483   -0.000000    0.000738    0.000000   -0.000483    0.000000
    2   -1   -2    4    2    0.000344    0.000000    0.000248   -0.000000   -0.000749    0.000000
    2   -1   -2    1    3    0.000067   -0.000000    0.000092    0.000000    0.000092   -0.000000
    2   -1   -2    2    3    0.000743    0.000000    0.000999   -0.000000   -0.001066    0.000000
    2   -1   -2    3    3   -0.000000    0.000000   -0.000000    0.000000   -0.000000    0.000000
    2   -1   -2    4    3    0.000743   -0.000000   -0.001066    0.000000    0.000999    0.000000
    2   -1   -2    1    4   -0.000614   -0.000000    0.001239    0.000000   -0.000826    0.000000
    2   -1   -2    2    4    0.000344    0.000000   -0.000749    0.000000    0.000248    0.000000
    2   -1   -2    3    4    0.000483   -0.000000   -0.000483   -0.000000    0.000738   -0.000000
    2   -1   -2    4    4   -0.000000    0.000000   -0.000000   -0.000000   -0.000000   -0.000000
    2   -1   -1    1    1   -0.000000   -0.000000    0.000000    0.000000   -0.000000    0.000000
    2   -1   -1    2    1   -0.000777    0.000000   -0.001287   -0.000000    0.000778   -0.000000
    2   -1   -1    3    1   -0.000778   -0.000000   -0.001287   -0.000000    0.000777    0.000000
    2   -1   -1    4    1    0.000483   -0.000000    0.003512    0.000000   -0.000483    0.000000
    2   -1   -1    1    2   -0.001135    0.000000   -0.002013    0.000000    0.001549   -0.000000
    2   -1   -1    2    2   -0.000000    0.000000    0.000000   -0.000000   -0.000000    0.000000
    2   -1   -1    3    2    0.001219   -0.000000    0.001922    0.000000   -0.000818    0.000000
    2   -1   -1    4    2    0.001071    0.000000   -0.000379   -0.000000    0.002213   -0.000000
    2   -1   -1    1    3   -0.001549   -0.000000   -0.002013   -0.000000    0.001135    0.000000
    2   -1   -1    2    3    0.000818    0.000000    0.001922   -0.000000   -0.001219    0.000000
    2   -1   -1    3    3    0.000000   -0.000000   -0.000000   -0.000000    0.000000   -0.000000
    2   -1   -1    4    3   -0.002213    0.000000   -0.000379    0.000000   -0.001071    0.000000
    2   -1   -1    1    4    0.001166    0.000000    0.001853   -0.000000   -0.001166    0.000000
    2   -1   -1    2    4    0.000258   -0.000000    0.000146    0.000000    0.000146   -0.000000
    2   -1   -1    3    4   -0.000146    0.000000    0.000146    0.000000   -0.000258   -0.000000
    2   -1   -1    4    4    0.000000   -0.000000   -0.000000   -0.000000    0.000000   -0.000000
    2   -1    0    1    1   -0.000000   -0.000000   -0.000000    0.000000   -0.000000    0.000000
    2   -1    0    2    1   -0.002164    0.000000   -0.000984   -0.000000    0.001726   -0.000000
    2   -1    0    3    1    0.002133    0.000000    0.001008    0.000000   -0.000911    0.000000
    2   -1    0    4    1   -0.001167    0.000000    0.001858   -0.000000    0.003253   -0.000000
    2   -1    0    1    2   -0.001202    0.000000   -0.000862   -0.000000    0.000542   -0.000000
    2   -1    0    2    2    0.000000    0.000000   -0.000000   -0.000000    0.000000    0.000000
    2   -1    0    3    2   -0.001359   -0.000000   -0.000707   -0.000000    0.000698    0.000000
    2   -1    0    4    2    0.002757    0.000000    0.001238    0.000000   -0.000223    0.000000
    2   -1    0    1    3    0.001555    0.000000    0.001185    0.000000   -0.000734    0.000000
    2   -1    0    2    3   -0.002070    0.000000   -0.001492   -0.000000    0.001217    0.000000
    2   -1    0    3    3   -0.000000   -0.000000    0.000000   -0.000000   -0.000000   -0.000000
    2   -1    0    4    3    0.000423   -0.000000   -0.003015    0.000000   -0.001621   -0.000000
    2   -1    0    1    4    0.000159    0.000000    0.000244    0.000000   -0.000088    0.000000
    2   -1    0    2    4    0.001684    0.000000    0.001334    0.000000   -0.000531   -0.000000
    2   -1    0    3    4    0.000000   -0.000000    0.000000   -0.000000   -0.000333   -0.000000
    2   -1    0    4    4   -0.000000   -0.000000    0.000000    0.000000   -0.000000    0.000000
    2   -1    1    1    1    0.000000   -0.000000    0.000000    0.000000    0.000000   -0.000000
    2   -1    1    2    1   -0.000869   -0.000000   -0.000572   -0.000000    0.001254    0.000000
    2   -1    1    3    1    0.000903    0.000000    0.000318   -0.000000   -0.000667   -0.000000
    2   -1    1    4    1   -0.000163    0.000000    0.000755   -0.000000   -0.000678   -0.000000
    2   -1    1    1    2   -0.000476    0.000000   -0.000510   -0.000000    0.001094    0.000000
    2   -1    1    2    2    0.000000   -0.000000   -0.000000   -0.000000    0.000000   -0.000000
    2   -1    1    3    2    0.000019    0.000000    0.000047   -0.000000    0.000019   -0.000000
    2   -1    1    4    2    0.000769   -0.000000   -0.000533    0.000000   -0.000150    0.000000
    2   -1    1    1    3    0.000900   -0.000000    0.000842    0.000000   -0.001223   -0.000000
    2   -1    1    2    3    0.000018    0.000000    0.000141    0.000000    0.000018   -0.000000
    2   -1    1    3    3    0.000000    0.000000    0.000000    0.000000    0.000000    0.000000
    2   -1    1    4    3   -0.000908   -0.000000    0.000585   -0.000000    0.000586   -0.000000
    2   -1    1    1    4   -0.000678   -0.000000    0.000274   -0.000000   -0.000163    0.000000
    2   -1    1    2    4    0.000940   -0.000000   -0.000315   -0.000000   -0.000554   -0.000000
    2   -1    1    3    4   -0.000341    0.000000    0.000341    0.000000    0.000577   -0.000000
    2   -1    1    4    4    0.000000    0.000000   -0.000000    0.000000    0.000000    0.000000
    2    0   -2    1    1    0.000000    0.000000    0.000000   -0.000000    0.000000    0.000000
    2    0   -2    2    1   -0.000911   -0.000000   -0.001008    0.000000    0.002133    0.000000
    2    0   -2    3    1   -0.000161   -0.000000    0.000038    0.000000    0.000038    0.000000
    2    0   -2    4    1   -0.000911   -0.000000    0.002133   -0.000000   -0.001008    0.000000
    2    0   -2    1    2    0.000821   -0.000000    0.002133   -0.000000   -0.001008   -0.000000
    2    0   -2    2    2    0.000000   -0.000000    0.000000   -0.000000    0.000000    0.000000
    2    0   -2    3    2    0.000755   -0.000000    0.001127    0.000000   -0.002015    0.000000
    2    0   -2    4    2    0.003290   -0.000000    0.011700   -0.000000   -0.010627   -0.000000
    2    0   -2    1    3   -0.000161   -0.000000    0.000038   -0.000000    0.000038   -0.000000
    2    0   -2    2    3   -0.000977   -0.000000   -0.002015   -0.000000    0.001127   -0.000000
    2    0   -2    3    3    0.000000    0.000000    0.000000    0.000000    0.000000    0.000000
    2    0   -2    4    3   -0.000977    0.000000    0.001127    0.000000   -0.002015    0.000000
    2    0   -2    1    4    0.000821   -0.000000   -0.001008   -0.000000    0.002133    0.000000
    2    0   -2    2    4    0.003290    0.000000   -0.010627    0.000000    0.011700    0.000000
    2    0   -2    3    4    0.000755    0.000000   -0.002015   -0.000000    0.001127   -0.000000
    2    0   -2    4    4    0.000000    0.000000   -0.000000    0.000000   -0.000000    0.000000
    2    0   -1    1    1    0.000000   -0.000000   -0.000000    0.000000    0.000000    0.000000
    2    0   -1    2    1    0.000911    0.000000    0.001008   -0.000000   -0.002133   -0.000000
    2    0   -1    3    1   -0.001726    0.000000   -0.000984    0.000000    0.002164    0.000000
    2    0   -1    4    1   -0.003253    0.000000    0.001858   -0.000000    0.001167   -0.000000
    2    0   -1    1    2    0.000734   -0.000000    0.001185    0.000000   -0.001555   -0.000000
    2    0   -1    2    2   -0.000000    0.000000    0.000000    0.000000    0.000000    0.000000
    2    0   -1    3    2   -0.001217    0.000000   -0.001492   -0.000000    0.002070    0.000000
    2    0   -1    4    2    0.001621   -0.000000   -0.003015   -0.000000   -0.000423   -0.000000
    2    0   -1    1    3   -0.000542   -0.000000   -0.000862   -0.000000    0.001202    0.000000
    2    0   -1    2    3   -0.000698   -0.000000   -0.000707   -0.000000    0.001359   -0.000000
    2    0   -1    3    3   -0.000000   -0.000000   -0.000000   -0.000000   -0.000000   -0.000000
    2    0   -1    4    3    0.000223    0.000000    0.001238    0.000000   -0.002757    0.000000
    2    0   -1    1    4    0.000088    0.000000    0.000244    0.000000   -0.000159   -0.000000
    2    0   -1    2    4    0.000333    0.000000   -0.000000   -0.000000   -0.000000    0.000000
    2    0   -1    3    4    0.000531   -0.000000    0.001334   -0.000000   -0.001684    0.000000
    2    0   -1    4    4   -0.000000   -0.000000    0.000000   -0.000000   -0.000000   -0.000000
    2    0    0    1    1   -0.000000   -0.000000   -0.000000   -0.000000   -0.000000   -0.000000
    2    0    0    2    1    0.002327   -0.000000    0.000628   -0.000000   -0.001254   -0.000000
    2    0    0    3    1    0.001254    0.000000    0.000628    0.000000   -0.002327   -0.000000
    2    0    0    4    1    0.010261    0.000000    0.004730   -0.000000   -0.010261   -0.000000
    2    0    0    1    2   -0.001254    0.000000   -0.000665    0.000000    0.002327    0.000000
    2    0    0    2    2    0.000000    0.000000    0.000000   -0.000000    0.000000    0.000000
    2    0    0    3    2   -0.000000    0.000000   -0.000123   -0.000000    0.000000    0.000000
    2    0    0    4    2    0.001781    0.000000   -0.000558    0.000000   -0.000708    0.000000
    2    0    0    1    3   -0.002327    0.000000   -0.000665    0.000000    0.001254   -0.000000
    2    0    0    2    3    0.000000   -0.000000   -0.000123    0.000000   -0.000000   -0.000000
    2    0    0    3    3    0.000000    0.000000   -0.000000   -0.000000    0.000000   -0.000000
    2    0    0    4    3    0.000708   -0.000000   -0.000558   -0.000000   -0.001781   -0.000000
    2    0    0    1    4   -0.010261    0.000000    0.002923   -0.000000    0.010261   -0.000000
    2    0    0    2    4   -0.000708   -0.000000    0.000521    0.000000    0.001781   -0.000000
    2    0    0    3    4   -0.001781    0.000000    0.000521    0.000000    0.000708    0.000000
    2    0    0    4    4    0.000000    0.000000   -0.000000   -0.000000    0.000000   -0.000000
    2    1   -2    1    1    0.000000   -0.000000    0.000000    0.000000    0.000000    0.000000
    2    1   -2    2    1    0.000777    0.000000    0.001287   -0.000000   -0.000778    0.000000
    2    1   -2    3    1    0.000161   -0.000000   -0.000038    0.000000   -0.000038   -0.000000
    2    1   -2    4    1    0.000777   -0.000000   -0.000778    0.000000    0.001287    0.000000
    2    1   -2    1    2    0.000263   -0.000000    0.000722    0.000000   -0.000499    0.000000
    2    1   -2    2    2    0.000000    0.000000    0.000000    0.000000    0.000000    0.000000
    2    1   -2    3    2   -0.000467    0.000000   -0.001359   -0.000000    0.000707    0.000000
    2    1   -2    4    2    0.000832    0.000000    0.000602   -0.000000   -0.000395   -0.000000
    2    1   -2    1    3    0.000048    0.000000   -0.000019   -0.000000   -0.000019    0.000000
    2    1   -2    2    3   -0.000708   -0.000000   -0.000896   -0.000000    0.000325   -0.000000
    2    1   -2    3    3   -0.000000   -0.000000   -0.000000   -0.000000   -0.000000   -0.000000
    2    1   -2    4    3   -0.000708    0.000000    0.000325   -0.000000   -0.000896    0.000000
    2    1   -2    1    4    0.000263   -0.000000   -0.000499    0.000000    0.000722   -0.000000
    2    1   -2    2    4    0.000832    0.000000   -0.000395   -0.000000    0.000602    0.000000
    2    1   -2    3    4   -0.000467   -0.000000    0.000707   -0.000000   -0.001359   -0.000000
    2    1   -2    4    4   -0.000000   -0.000000   -0.000000    0.000000   -0.000000    0.000000
    2    1   -1    1    1    0.000000    0.000000    0.000000   -0.000000    0.000000    0.000000
    2    1   -1    2    1    0.000667    0.000000    0.000318   -0.000000   -0.000903    0.000000
    2    1   -1    3    1   -0.001254   -0.000000   -0.000572    0.000000    0.000869   -0.000000
    2    1   -1    4    1    0.000678   -0.000000    0.000755   -0.000000    0.000163    0.000000
    2    1   -1    1    2    0.001223   -0.000000    0.000842    0.000000   -0.000900   -0.000000
    2    1   -1    2    2    0.000000    0.000000   -0.000000    0.000000    0.000000    0.000000
    2    1   -1    3    2   -0.000018    0.000000    0.000141   -0.000000   -0.000018   -0.000000
    2    1   -1    4    2   -0.000586   -0.000000    0.000585    0.000000    0.000908   -0.000000
    2    1   -1    1    3   -0.001094    0.000000   -0.000510   -0.000000    0.000476   -0.000000
    2    1   -1    2    3   -0.000019   -0.000000    0.000047    0.000000   -0.000019   -0.000000
    2    1   -1    3    3    0.000000   -0.000000    0.000000   -0.000000    0.000000   -0.000000
    2    1   -1    4    3    0.000150    0.000000   -0.000533    0.000000   -0.000769   -0.000000
    2    1   -1    1    4    0.000163    0.000000    0.000274    0.000000    0.000678   -0.000000
    2    1   -1    2    4   -0.000577   -0.000000    0.000341   -0.000000    0.000341   -0.000000
    2    1   -1    3    4    0.000554    0.000000   -0.000315    0.000000   -0.000940    0.000000
    2    1   -1    4    4    0.000000   -0.000000   -0.000000   -0.000000    0.000000   -0.000000
    2    2   -2    1    1   -0.000000   -0.000000   -0.000000   -0.000000    0.000000    0.000000
    2    2   -2    2    1    0.000046    0.000000   -0.000046   -0.000000    0.000020    0.000000
    2    2   -2    3    1   -0.000020   -0.000000   -0.000046    0.000000   -0.000046   -0.000000
    2    2   -2    4    1    0.000046   -0.000000    0.000020   -0.000000   -0.000046    0.000000
    2    2   -2    1    2   -0.000046    0.000000    0.000046   -0.000000   -0.000020    0.000000
    2    2   -2    2    2   -0.000000    0.000000    0.000000   -0.000000   -0.000000   -0.000000
    2    2   -2    3    2   -0.000066    0.000000   -0.000000    0.000000   -0.000066   -0.000000
    2    2   -2    4    2   -0.000000   -0.000000    0.000066    0.000000   -0.000066   -0.000000
    2    2   -2    1    3    0.000020   -0.000000    0.000046    0.000000    0.000046   -0.000000
    2    2   -2    2    3    0.000066    0.000000    0.000000    0.000000    0.000066   -0.000000
    2    2   -2    3    3    0.000000    0.000000    0.000000    0.000000    0.000000    0.000000
    2    2   -2    4    3    0.000066   -0.000000    0.000066   -0.000000    0.000000    0.000000
    2    2   -2    1    4   -0.000046   -0.000000   -0.000020   -0.000000    0.000046    0.000000
    2    2   -2    2    4    0.000000   -0.000000   -0.000066    0.000000    0.000066   -0.000000
    2    2   -2    3    4   -0.000066   -0.000000   -0.000066   -0.000000   -0.000000    0.000000
    2    2   -2    4    4   -0.000000   -0.000000    0.000000    0.000000    0.000000    0.000000
    3   -1   -1    1    1    0.000000   -0.000000   -0.000000    0.000000   -0.000000    0.000000
    3   -1   -1    2    1    0.000965    0.000000   -0.000965   -0.000000    0.001934    0.000000
    3   -1   -1    3    1   -0.001934   -0.000000   -0.000965   -0.000000   -0.000965   -0.000000
    3   -1   -1    4    1    0.000965   -0.000000    0.001934    0.000000   -0.000965    0.000000
    3   -1   -1    1    2   -0.000151    0.000000    0.000151    0.000000    0.001468    0.000000
    3   -1   -1    2    2    0.000000   -0.000000   -0.000000   -0.000000    0.000000    0.000000
    3   -1   -1    3    2   -0.001217    0.000000   -0.001681   -0.000000   -0.000364    0.000000
    3   -1   -1    4    2    0.001681    0.000000    0.001217   -0.000000   -0.000364    0.000000
    3   -1   -1    1    3   -0.001468    0.000000    0.000151    0.000000    0.000151   -0.000000
    3   -1   -1    2    3    0.000364    0.000000   -0.001681   -0.000000    0.001217    0.000000
    3   -1   -1    3    3   -0.000000   -0.000000   -0.000000   -0.000000   -0.000000   -0.000000
    3   -1   -1    4    3    0.000364   -0.000000    0.001217    0.000000   -0.001681    0.000000
    3   -1   -1    1    4   -0.000151    0.000000    0.001468   -0.000000    0.000151   -0.000000
    3   -1   -1    2    4    0.001681    0.000000   -0.000364    0.000000    0.001217   -0.000000
    3   -1   -1    3    4   -0.001217   -0.000000   -0.000364   -0.000000   -0.001681   -0.000000
    3   -1   -1    4    4    0.000000   -0.000000    0.000000   -0.000000   -0.000000    0.000000
