# File written on 21May2024 at 10:48:00 

calc_only_A  :  F

begin real_lattice
  -1.9559977   0.0000000   1.9559977
   0.0000000   1.9559977   1.9559977
  -1.9559977   1.9559977   0.0000000
end real_lattice

begin recip_lattice
  -1.6061331  -1.6061331   1.6061331
   1.6061331   1.6061331   1.6061331
  -1.6061331   1.6061331  -1.6061331
end recip_lattice

begin kpoints
    27
    0.00000000    0.00000000    0.00000000
    0.00000000    0.00000000    0.33333333
    0.00000000    0.00000000    0.66666667
    0.00000000    0.33333333    0.00000000
    0.00000000    0.33333333    0.33333333
    0.00000000    0.33333333    0.66666667
    0.00000000    0.66666667    0.00000000
    0.00000000    0.66666667    0.33333333
    0.00000000    0.66666667    0.66666667
    0.33333333    0.00000000    0.00000000
    0.33333333    0.00000000    0.33333333
    0.33333333    0.00000000    0.66666667
    0.33333333    0.33333333    0.00000000
    0.33333333    0.33333333    0.33333333
    0.33333333    0.33333333    0.66666667
    0.33333333    0.66666667    0.00000000
    0.33333333    0.66666667    0.33333333
    0.33333333    0.66666667    0.66666667
    0.66666667    0.00000000    0.00000000
    0.66666667    0.00000000    0.33333333
    0.66666667    0.00000000    0.66666667
    0.66666667    0.33333333    0.00000000
    0.66666667    0.33333333    0.33333333
    0.66666667    0.33333333    0.66666667
    0.66666667    0.66666667    0.00000000
    0.66666667    0.66666667    0.33333333
    0.66666667    0.66666667    0.66666667
end kpoints

begin projections
     0
end projections

begin nnkpts
  24
       1       2      0   0   0
       1       4      0   0   0
       1      10      0   0   0
       1      14      0   0   0
       1       3      0   0   0
       1       7      0   0   0
       1      19      0   0   0
       1      27      0   0   0
       1       1      0   0   1
       1       1      0   1   0
       1       1      1   0   0
       1       1      1   1   1
       1       3      0   0  -1
       1       7      0  -1   0
       1      19     -1   0   0
       1      27     -1  -1  -1
       1       2      0   0  -1
       1       4      0  -1   0
       1      10     -1   0   0
       1      14     -1  -1  -1
       1       1      0   0  -1
       1       1      0  -1   0
       1       1     -1   0   0
       1       1     -1  -1  -1
       2       3      0   0   0
       2       5      0   0   0
       2      11      0   0   0
       2      15      0   0   0
       2       1      0   0   1
       2       8      0   0   0
       2      20      0   0   0
       2      25      0   0   1
       2       2      0   0   1
       2       2      0   1   0
       2       2      1   0   0
       2       2      1   1   1
       2       1      0   0   0
       2       8      0  -1   0
       2      20     -1   0   0
       2      25     -1  -1   0
       2       3      0   0  -1
       2       5      0  -1   0
       2      11     -1   0   0
       2      15     -1  -1  -1
       2       2      0   0  -1
       2       2      0  -1   0
       2       2     -1   0   0
       2       2     -1  -1  -1
       3       1      0   0   1
       3       6      0   0   0
       3      12      0   0   0
       3      13      0   0   1
       3       2      0   0   1
       3       9      0   0   0
       3      21      0   0   0
       3      26      0   0   1
       3       3      0   0   1
       3       3      0   1   0
       3       3      1   0   0
       3       3      1   1   1
       3       2      0   0   0
       3       9      0  -1   0
       3      21     -1   0   0
       3      26     -1  -1   0
       3       1      0   0   0
       3       6      0  -1   0
       3      12     -1   0   0
       3      13     -1  -1   0
       3       3      0   0  -1
       3       3      0  -1   0
       3       3     -1   0   0
       3       3     -1  -1  -1
       4       5      0   0   0
       4       7      0   0   0
       4      13      0   0   0
       4      17      0   0   0
       4       6      0   0   0
       4       1      0   1   0
       4      22      0   0   0
       4      21      0   1   0
       4       4      0   0   1
       4       4      0   1   0
       4       4      1   0   0
       4       4      1   1   1
       4       6      0   0  -1
       4       1      0   0   0
       4      22     -1   0   0
       4      21     -1   0  -1
       4       5      0   0  -1
       4       7      0  -1   0
       4      13     -1   0   0
       4      17     -1  -1  -1
       4       4      0   0  -1
       4       4      0  -1   0
       4       4     -1   0   0
       4       4     -1  -1  -1
       5       6      0   0   0
       5       8      0   0   0
       5      14      0   0   0
       5      18      0   0   0
       5       4      0   0   1
       5       2      0   1   0
       5      23      0   0   0
       5      19      0   1   1
       5       5      0   0   1
       5       5      0   1   0
       5       5      1   0   0
       5       5      1   1   1
       5       4      0   0   0
       5       2      0   0   0
       5      23     -1   0   0
       5      19     -1   0   0
       5       6      0   0  -1
       5       8      0  -1   0
       5      14     -1   0   0
       5      18     -1  -1  -1
       5       5      0   0  -1
       5       5      0  -1   0
       5       5     -1   0   0
       5       5     -1  -1  -1
       6       4      0   0   1
       6       9      0   0   0
       6      15      0   0   0
       6      16      0   0   1
       6       5      0   0   1
       6       3      0   1   0
       6      24      0   0   0
       6      20      0   1   1
       6       6      0   0   1
       6       6      0   1   0
       6       6      1   0   0
       6       6      1   1   1
       6       5      0   0   0
       6       3      0   0   0
       6      24     -1   0   0
       6      20     -1   0   0
       6       4      0   0   0
       6       9      0  -1   0
       6      15     -1   0   0
       6      16     -1  -1   0
       6       6      0   0  -1
       6       6      0  -1   0
       6       6     -1   0   0
       6       6     -1  -1  -1
       7       8      0   0   0
       7       1      0   1   0
       7      16      0   0   0
       7      11      0   1   0
       7       9      0   0   0
       7       4      0   1   0
       7      25      0   0   0
       7      24      0   1   0
       7       7      0   0   1
       7       7      0   1   0
       7       7      1   0   0
       7       7      1   1   1
       7       9      0   0  -1
       7       4      0   0   0
       7      25     -1   0   0
       7      24     -1   0  -1
       7       8      0   0  -1
       7       1      0   0   0
       7      16     -1   0   0
       7      11     -1   0  -1
       7       7      0   0  -1
       7       7      0  -1   0
       7       7     -1   0   0
       7       7     -1  -1  -1
       8       9      0   0   0
       8       2      0   1   0
       8      17      0   0   0
       8      12      0   1   0
       8       7      0   0   1
       8       5      0   1   0
       8      26      0   0   0
       8      22      0   1   1
       8       8      0   0   1
       8       8      0   1   0
       8       8      1   0   0
       8       8      1   1   1
       8       7      0   0   0
       8       5      0   0   0
       8      26     -1   0   0
       8      22     -1   0   0
       8       9      0   0  -1
       8       2      0   0   0
       8      17     -1   0   0
       8      12     -1   0  -1
       8       8      0   0  -1
       8       8      0  -1   0
       8       8     -1   0   0
       8       8     -1  -1  -1
       9       7      0   0   1
       9       3      0   1   0
       9      18      0   0   0
       9      10      0   1   1
       9       8      0   0   1
       9       6      0   1   0
       9      27      0   0   0
       9      23      0   1   1
       9       9      0   0   1
       9       9      0   1   0
       9       9      1   0   0
       9       9      1   1   1
       9       8      0   0   0
       9       6      0   0   0
       9      27     -1   0   0
       9      23     -1   0   0
       9       7      0   0   0
       9       3      0   0   0
       9      18     -1   0   0
       9      10     -1   0   0
       9       9      0   0  -1
       9       9      0  -1   0
       9       9     -1   0   0
       9       9     -1  -1  -1
      10      11      0   0   0
      10      13      0   0   0
      10      19      0   0   0
      10      23      0   0   0
      10      12      0   0   0
      10      16      0   0   0
      10       1      1   0   0
      10       9      1   0   0
      10      10      0   0   1
      10      10      0   1   0
      10      10      1   0   0
      10      10      1   1   1
      10      12      0   0  -1
      10      16      0  -1   0
      10       1      0   0   0
      10       9      0  -1  -1
      10      11      0   0  -1
      10      13      0  -1   0
      10      19     -1   0   0
      10      23     -1  -1  -1
      10      10      0   0  -1
      10      10      0  -1   0
      10      10     -1   0   0
      10      10     -1  -1  -1
      11      12      0   0   0
      11      14      0   0   0
      11      20      0   0   0
      11      24      0   0   0
      11      10      0   0   1
      11      17      0   0   0
      11       2      1   0   0
      11       7      1   0   1
      11      11      0   0   1
      11      11      0   1   0
      11      11      1   0   0
      11      11      1   1   1
      11      10      0   0   0
      11      17      0  -1   0
      11       2      0   0   0
      11       7      0  -1   0
      11      12      0   0  -1
      11      14      0  -1   0
      11      20     -1   0   0
      11      24     -1  -1  -1
      11      11      0   0  -1
      11      11      0  -1   0
      11      11     -1   0   0
      11      11     -1  -1  -1
      12      10      0   0   1
      12      15      0   0   0
      12      21      0   0   0
      12      22      0   0   1
      12      11      0   0   1
      12      18      0   0   0
      12       3      1   0   0
      12       8      1   0   1
      12      12      0   0   1
      12      12      0   1   0
      12      12      1   0   0
      12      12      1   1   1
      12      11      0   0   0
      12      18      0  -1   0
      12       3      0   0   0
      12       8      0  -1   0
      12      10      0   0   0
      12      15      0  -1   0
      12      21     -1   0   0
      12      22     -1  -1   0
      12      12      0   0  -1
      12      12      0  -1   0
      12      12     -1   0   0
      12      12     -1  -1  -1
      13      14      0   0   0
      13      16      0   0   0
      13      22      0   0   0
      13      26      0   0   0
      13      15      0   0   0
      13      10      0   1   0
      13       4      1   0   0
      13       3      1   1   0
      13      13      0   0   1
      13      13      0   1   0
      13      13      1   0   0
      13      13      1   1   1
      13      15      0   0  -1
      13      10      0   0   0
      13       4      0   0   0
      13       3      0   0  -1
      13      14      0   0  -1
      13      16      0  -1   0
      13      22     -1   0   0
      13      26     -1  -1  -1
      13      13      0   0  -1
      13      13      0  -1   0
      13      13     -1   0   0
      13      13     -1  -1  -1
      14      15      0   0   0
      14      17      0   0   0
      14      23      0   0   0
      14      27      0   0   0
      14      13      0   0   1
      14      11      0   1   0
      14       5      1   0   0
      14       1      1   1   1
      14      14      0   0   1
      14      14      0   1   0
      14      14      1   0   0
      14      14      1   1   1
      14      13      0   0   0
      14      11      0   0   0
      14       5      0   0   0
      14       1      0   0   0
      14      15      0   0  -1
      14      17      0  -1   0
      14      23     -1   0   0
      14      27     -1  -1  -1
      14      14      0   0  -1
      14      14      0  -1   0
      14      14     -1   0   0
      14      14     -1  -1  -1
      15      13      0   0   1
      15      18      0   0   0
      15      24      0   0   0
      15      25      0   0   1
      15      14      0   0   1
      15      12      0   1   0
      15       6      1   0   0
      15       2      1   1   1
      15      15      0   0   1
      15      15      0   1   0
      15      15      1   0   0
      15      15      1   1   1
      15      14      0   0   0
      15      12      0   0   0
      15       6      0   0   0
      15       2      0   0   0
      15      13      0   0   0
      15      18      0  -1   0
      15      24     -1   0   0
      15      25     -1  -1   0
      15      15      0   0  -1
      15      15      0  -1   0
      15      15     -1   0   0
      15      15     -1  -1  -1
      16      17      0   0   0
      16      10      0   1   0
      16      25      0   0   0
      16      20      0   1   0
      16      18      0   0   0
      16      13      0   1   0
      16       7      1   0   0
      16       6      1   1   0
      16      16      0   0   1
      16      16      0   1   0
      16      16      1   0   0
      16      16      1   1   1
      16      18      0   0  -1
      16      13      0   0   0
      16       7      0   0   0
      16       6      0   0  -1
      16      17      0   0  -1
      16      10      0   0   0
      16      25     -1   0   0
      16      20     -1   0  -1
      16      16      0   0  -1
      16      16      0  -1   0
      16      16     -1   0   0
      16      16     -1  -1  -1
      17      18      0   0   0
      17      11      0   1   0
      17      26      0   0   0
      17      21      0   1   0
      17      16      0   0   1
      17      14      0   1   0
      17       8      1   0   0
      17       4      1   1   1
      17      17      0   0   1
      17      17      0   1   0
      17      17      1   0   0
      17      17      1   1   1
      17      16      0   0   0
      17      14      0   0   0
      17       8      0   0   0
      17       4      0   0   0
      17      18      0   0  -1
      17      11      0   0   0
      17      26     -1   0   0
      17      21     -1   0  -1
      17      17      0   0  -1
      17      17      0  -1   0
      17      17     -1   0   0
      17      17     -1  -1  -1
      18      16      0   0   1
      18      12      0   1   0
      18      27      0   0   0
      18      19      0   1   1
      18      17      0   0   1
      18      15      0   1   0
      18       9      1   0   0
      18       5      1   1   1
      18      18      0   0   1
      18      18      0   1   0
      18      18      1   0   0
      18      18      1   1   1
      18      17      0   0   0
      18      15      0   0   0
      18       9      0   0   0
      18       5      0   0   0
      18      16      0   0   0
      18      12      0   0   0
      18      27     -1   0   0
      18      19     -1   0   0
      18      18      0   0  -1
      18      18      0  -1   0
      18      18     -1   0   0
      18      18     -1  -1  -1
      19      20      0   0   0
      19      22      0   0   0
      19       1      1   0   0
      19       5      1   0   0
      19      21      0   0   0
      19      25      0   0   0
      19      10      1   0   0
      19      18      1   0   0
      19      19      0   0   1
      19      19      0   1   0
      19      19      1   0   0
      19      19      1   1   1
      19      21      0   0  -1
      19      25      0  -1   0
      19      10      0   0   0
      19      18      0  -1  -1
      19      20      0   0  -1
      19      22      0  -1   0
      19       1      0   0   0
      19       5      0  -1  -1
      19      19      0   0  -1
      19      19      0  -1   0
      19      19     -1   0   0
      19      19     -1  -1  -1
      20      21      0   0   0
      20      23      0   0   0
      20       2      1   0   0
      20       6      1   0   0
      20      19      0   0   1
      20      26      0   0   0
      20      11      1   0   0
      20      16      1   0   1
      20      20      0   0   1
      20      20      0   1   0
      20      20      1   0   0
      20      20      1   1   1
      20      19      0   0   0
      20      26      0  -1   0
      20      11      0   0   0
      20      16      0  -1   0
      20      21      0   0  -1
      20      23      0  -1   0
      20       2      0   0   0
      20       6      0  -1  -1
      20      20      0   0  -1
      20      20      0  -1   0
      20      20     -1   0   0
      20      20     -1  -1  -1
      21      19      0   0   1
      21      24      0   0   0
      21       3      1   0   0
      21       4      1   0   1
      21      20      0   0   1
      21      27      0   0   0
      21      12      1   0   0
      21      17      1   0   1
      21      21      0   0   1
      21      21      0   1   0
      21      21      1   0   0
      21      21      1   1   1
      21      20      0   0   0
      21      27      0  -1   0
      21      12      0   0   0
      21      17      0  -1   0
      21      19      0   0   0
      21      24      0  -1   0
      21       3      0   0   0
      21       4      0  -1   0
      21      21      0   0  -1
      21      21      0  -1   0
      21      21     -1   0   0
      21      21     -1  -1  -1
      22      23      0   0   0
      22      25      0   0   0
      22       4      1   0   0
      22       8      1   0   0
      22      24      0   0   0
      22      19      0   1   0
      22      13      1   0   0
      22      12      1   1   0
      22      22      0   0   1
      22      22      0   1   0
      22      22      1   0   0
      22      22      1   1   1
      22      24      0   0  -1
      22      19      0   0   0
      22      13      0   0   0
      22      12      0   0  -1
      22      23      0   0  -1
      22      25      0  -1   0
      22       4      0   0   0
      22       8      0  -1  -1
      22      22      0   0  -1
      22      22      0  -1   0
      22      22     -1   0   0
      22      22     -1  -1  -1
      23      24      0   0   0
      23      26      0   0   0
      23       5      1   0   0
      23       9      1   0   0
      23      22      0   0   1
      23      20      0   1   0
      23      14      1   0   0
      23      10      1   1   1
      23      23      0   0   1
      23      23      0   1   0
      23      23      1   0   0
      23      23      1   1   1
      23      22      0   0   0
      23      20      0   0   0
      23      14      0   0   0
      23      10      0   0   0
      23      24      0   0  -1
      23      26      0  -1   0
      23       5      0   0   0
      23       9      0  -1  -1
      23      23      0   0  -1
      23      23      0  -1   0
      23      23     -1   0   0
      23      23     -1  -1  -1
      24      22      0   0   1
      24      27      0   0   0
      24       6      1   0   0
      24       7      1   0   1
      24      23      0   0   1
      24      21      0   1   0
      24      15      1   0   0
      24      11      1   1   1
      24      24      0   0   1
      24      24      0   1   0
      24      24      1   0   0
      24      24      1   1   1
      24      23      0   0   0
      24      21      0   0   0
      24      15      0   0   0
      24      11      0   0   0
      24      22      0   0   0
      24      27      0  -1   0
      24       6      0   0   0
      24       7      0  -1   0
      24      24      0   0  -1
      24      24      0  -1   0
      24      24     -1   0   0
      24      24     -1  -1  -1
      25      26      0   0   0
      25      19      0   1   0
      25       7      1   0   0
      25       2      1   1   0
      25      27      0   0   0
      25      22      0   1   0
      25      16      1   0   0
      25      15      1   1   0
      25      25      0   0   1
      25      25      0   1   0
      25      25      1   0   0
      25      25      1   1   1
      25      27      0   0  -1
      25      22      0   0   0
      25      16      0   0   0
      25      15      0   0  -1
      25      26      0   0  -1
      25      19      0   0   0
      25       7      0   0   0
      25       2      0   0  -1
      25      25      0   0  -1
      25      25      0  -1   0
      25      25     -1   0   0
      25      25     -1  -1  -1
      26      27      0   0   0
      26      20      0   1   0
      26       8      1   0   0
      26       3      1   1   0
      26      25      0   0   1
      26      23      0   1   0
      26      17      1   0   0
      26      13      1   1   1
      26      26      0   0   1
      26      26      0   1   0
      26      26      1   0   0
      26      26      1   1   1
      26      25      0   0   0
      26      23      0   0   0
      26      17      0   0   0
      26      13      0   0   0
      26      27      0   0  -1
      26      20      0   0   0
      26       8      0   0   0
      26       3      0   0  -1
      26      26      0   0  -1
      26      26      0  -1   0
      26      26     -1   0   0
      26      26     -1  -1  -1
      27      25      0   0   1
      27      21      0   1   0
      27       9      1   0   0
      27       1      1   1   1
      27      26      0   0   1
      27      24      0   1   0
      27      18      1   0   0
      27      14      1   1   1
      27      27      0   0   1
      27      27      0   1   0
      27      27      1   0   0
      27      27      1   1   1
      27      26      0   0   0
      27      24      0   0   0
      27      18      0   0   0
      27      14      0   0   0
      27      25      0   0   0
      27      21      0   0   0
      27       9      0   0   0
      27       1      0   0   0
      27      27      0   0  -1
      27      27      0  -1   0
      27      27     -1   0   0
      27      27     -1  -1  -1
end nnkpts

begin exclude_bands
   0
end exclude_bands
