
             +---------------------------------------------------+
             |                                                   |
             |                   WANNIER90                       |
             |                                                   |
             +---------------------------------------------------+
             |                                                   |
             |        Welcome to the Maximally-Localized         |
             |        Generalized Wannier Functions code         |
             |            http://www.wannier.org                 |
             |                                                   |
             |                                                   |
             |  Wannier90 Developer Group:                       |
             |    Giovanni Pizzi    (Paul Scherrer Institute)    |
             |    Valerio Vitale    (University of Trieste)      |
             |    David Vanderbilt  (Rutgers University)         |
             |    Nicola Marzari    (EPFL)                       |
             |    Ivo Souza         (Universidad del Pais Vasco) |
             |    Arash A. Mostofi  (Imperial College London)    |
             |    Jonathan R. Yates (University of Oxford)       |
             |                                                   |
             |  For the full list of Wannier90 3.x authors,      |
             |  please check the code documentation and the      |
             |  README on the GitHub page of the code            |
             |                                                   |
             |                                                   |
             |  Please cite                                      |
             |                                                   |
             |  [ref] "Wannier90 as a community code:            |
             |        new features and applications",            |
             |        G. Pizzi et al., J. Phys. Cond. Matt. 32,  |
             |        165902 (2020).                             |
             |        http://doi.org/10.1088/1361-648X/ab51ff    |
             |                                                   |
             |  in any publications arising from the use of      |
             |  this code. For the method please cite            |
             |                                                   |
             |  [ref] "Maximally Localized Generalised Wannier   |
             |         Functions for Composite Energy Bands"     |
             |         N. Marzari and D. Vanderbilt              |
             |         Phys. Rev. B 56 12847 (1997)              |
             |                                                   |
             |  [ref] "Maximally Localized Wannier Functions     |
             |         for Entangled Energy Bands"               |
             |         I. Souza, N. Marzari and D. Vanderbilt    |
             |         Phys. Rev. B 65 035109 (2001)             |
             |                                                   |
             |                                                   |
             | Copyright (c) 1996-2020                           |
             |        The Wannier90 Developer Group and          |
             |        individual contributors                    |
             |                                                   |
             |      Release: 3.1.0        5th March    2020      |
             |                                                   |
             | This program is free software; you can            |
             | redistribute it and/or modify it under the terms  |
             | of the GNU General Public License as published by |
             | the Free Software Foundation; either version 2 of |
             | the License, or (at your option) any later version|
             |                                                   |
             | This program is distributed in the hope that it   |
             | will be useful, but WITHOUT ANY WARRANTY; without |
             | even the implied warranty of MERCHANTABILITY or   |
             | FITNESS FOR A PARTICULAR PURPOSE. See the GNU     |
             | General Public License for more details.          |
             |                                                   |
             | You should have received a copy of the GNU General|
             | Public License along with this program; if not,   |
             | write to the Free Software Foundation, Inc.,      |
             | 675 Mass Ave, Cambridge, MA 02139, USA.           |
             |                                                   |
             +---------------------------------------------------+
             |    Execution started on 22May2024 at 08:44:01     |
             +---------------------------------------------------+
 
 ******************************************************************************
 * -> Using CODATA 2006 constant values                                       *
 *    (http://physics.nist.gov/cuu/Constants/index.html)                      *
 * -> Using Bohr value from CODATA                                            *
 ******************************************************************************
 

 Running in serial (with parallel executable)

                                    ------
                                    SYSTEM
                                    ------

                              Lattice Vectors (Ang)
                    a_1     3.998339   0.000000   0.000000
                    a_2     0.000000   3.998339   0.000000
                    a_3     0.000000   0.000000   4.064361

                   Unit Cell Volume:      64.97578  (Ang^3)

                        Reciprocal-Space Vectors (Ang^-1)
                    b_1     1.571449   0.000000   0.000000
                    b_2     0.000000   1.571449   0.000000
                    b_3     0.000000   0.000000   1.545922
  
 *----------------------------------------------------------------------------*
 |   Site       Fractional Coordinate          Cartesian Coordinate (Ang)     |
 +----------------------------------------------------------------------------+
 | k    1   0.50000   0.50000   0.52300   |    1.99917   1.99917   2.12566    |
 | nb   1   0.00000   0.00000   0.00000   |    0.00000   0.00000   0.00000    |
 | o    1   0.00000   0.50000   0.04200   |    0.00000   1.99917   0.17070    |
 | o    2   0.00000   0.00000   0.54000   |    0.00000   0.00000   2.19475    |
 | o    3   0.50000   0.00000   0.04200   |    1.99917   0.00000   0.17070    |
 *----------------------------------------------------------------------------*
                                ------------
                                K-POINT GRID
                                ------------
  
             Grid size =  3 x  3 x  3      Total points =   27
  
  
 *---------------------------------- MAIN ------------------------------------*
 |  Number of Wannier Functions               :                15             |
 |  Number of Objective Wannier Functions     :                15             |
 |  Number of input Bloch states              :                15             |
 |  Output verbosity (1=low, 5=high)          :                 1             |
 |  Timing Level (1=low, 5=high)              :                 1             |
 |  Optimisation (0=memory, 3=speed)          :                 3             |
 |  Length Unit                               :               Ang             |
 |  Post-processing setup (write *.nnkp)      :                 F             |
 |  Using Gamma-only branch of algorithms     :                 F             |
 *----------------------------------------------------------------------------*
 *------------------------------- WANNIERISE ---------------------------------*
 |  Total number of iterations                :               100             |
 |  Number of CG steps before reset           :                 5             |
 |  Trial step length for line search         :             2.000             |
 |  Convergence tolerence                     :         0.100E-09             |
 |  Convergence window                        :                 5             |
 |  Iterations between writing output         :                 1             |
 |  Iterations between backing up to disk     :               100             |
 |  Write r^2_nm to file                      :                 F             |
 |  Write xyz WF centres to file              :                 F             |
 |  Write on-site energies <0n|H|0n> to file  :                 F             |
 |  Use guiding centre to control phases      :                 F             |
 |  Use phases for initial projections        :                 F             |
 *----------------------------------------------------------------------------*

 *---------------------------------- K-MESH ----------------------------------*
 +----------------------------------------------------------------------------+
 |                    Distance to Nearest-Neighbour Shells                    |
 |                    ------------------------------------                    |
 |          Shell             Distance (Ang^-1)          Multiplicity         |
 |          -----             -----------------          ------------         |
 |             1                   0.515307                      2            |
 |             2                   0.523816                      4            |
 |             3                   0.734796                      8            |
 |             4                   0.740788                      4            |
 |             5                   0.902391                      8            |
 |             6                   1.030615                      2            |
 |             7                   1.047633                      4            |
 |             8                   1.156093                      8            |
 |             9                   1.167508                      8            |
 |            10                   1.171289                      8            |
 |            11                   1.269226                      8            |
 |            12                   1.279632                     16            |
 |            13                   1.469592                      8            |
 |            14                   1.481576                      4            |
 |            15                   1.545922                      2            |
 |            16                   1.560155                     16            |
 |            17                   1.568633                      8            |
 |            18                   1.571449                      4            |
 |            19                   1.632256                      8            |
 |            20                   1.653782                      8            |
 |            21                   1.656453                      8            |
 |            22                   1.714247                      8            |
 |            23                   1.734756                     16            |
 |            24                   1.804781                      8            |
 |            25                   1.867461                      8            |
 |            26                   1.879260                      8            |
 |            27                   1.888647                      8            |
 |            28                   1.939534                     16            |
 |            29                   1.950898                     16            |
 |            30                   1.957684                     16            |
 |            31                   2.061229                      2            |
 |            32                   2.095265                      4            |
 |            33                   2.126746                      8            |
 |            34                   2.141248                      8            |
 |            35                   2.151546                     16            |
 |            36                   2.157702                      8            |
 +----------------------------------------------------------------------------+
 | The b-vectors are chosen automatically                                     |
 | The following shells and their multiples are used:   1,  2                 |
 +----------------------------------------------------------------------------+
 |                        Shell   # Nearest-Neighbours                        |
 |                        -----   --------------------                        |
 |                          1               2                                 |
 |                          2               4                                 |
 |                      2 x 1               2                                 |
 |                      2 x 2               4                                 |
 +----------------------------------------------------------------------------+
 | Completeness relation is fully satisfied [Eq. (B1), PRB 56, 12847 (1997)]  |
 +----------------------------------------------------------------------------+
 |                  b_k Vectors (Ang^-1) and Weights (Ang^2)                  |
 |                  ----------------------------------------                  |
 |            No.         b_k(x)      b_k(y)      b_k(z)        w_b           |
 |            ---        --------------------------------     --------        |
 |             1         0.000000    0.000000    0.515307     2.510592        |
 |             2         0.000000    0.000000   -0.515307     2.510592        |
 |             3         0.000000    0.523816    0.000000     2.429689        |
 |             4         0.523816    0.000000    0.000000     2.429689        |
 |             5         0.000000   -0.523816    0.000000     2.429689        |
 |             6        -0.523816    0.000000    0.000000     2.429689        |
 |             7         0.000000    0.000000    1.030615    -0.156912        |
 |             8         0.000000    0.000000   -1.030615    -0.156912        |
 |             9         0.000000    1.047633    0.000000    -0.151856        |
 |            10         1.047633    0.000000    0.000000    -0.151856        |
 |            11         0.000000   -1.047633    0.000000    -0.151856        |
 |            12        -1.047633    0.000000    0.000000    -0.151856        |
 +----------------------------------------------------------------------------+
 |                           b_k Directions (Ang^-1)                          |
 |                           -----------------------                          |
 |            No.           x           y           z                         |
 |            ---        --------------------------------                     |
 |             1         0.000000    0.000000    0.515307                     |
 |             2         0.000000    0.523816    0.000000                     |
 |             3         0.523816    0.000000    0.000000                     |
 |             4         0.000000    0.000000    1.030615                     |
 |             5         0.000000    1.047633    0.000000                     |
 |             6         1.047633    0.000000    0.000000                     |
 +----------------------------------------------------------------------------+
  
 Starting a new Wannier90 calculation ...


 Reading overlaps from knbo3.mmn    :  Created on 21May2024 at 11:17:26

 Reading projections from knbo3.amn :  Created on 21May2024 at 11:16:38

 *------------------------------- WANNIERISE ---------------------------------*
 +--------------------------------------------------------------------+<-- CONV
 | Iter  Delta Spread     RMS Gradient      Spread (Ang^2)      Time  |<-- CONV
 +--------------------------------------------------------------------+<-- CONV

 ------------------------------------------------------------------------------
 Initial State
  WF centre and spread    1  (   1.999169474488257,   1.999169474487823,   2.127102340498298 )   0.687294498443039
  WF centre and spread    2  (   1.999169474488463,   1.999169474488170,   2.128197312662445 )   0.687437727498116
  WF centre and spread    3  (   1.999169474487772,   1.999169474487904,   2.128197312662332 )   0.687437727496432
  WF centre and spread    4  (   0.000000000000006,   1.999169474488383,   0.164561078849264 )   0.640738984764570
  WF centre and spread    5  (   0.000000000000166,   1.999169474488905,   0.147408459995925 )   1.167185749517339
  WF centre and spread    6  (  -0.000000000001727,   1.999169474488562,   0.148756600247982 )   1.182017336808814
  WF centre and spread    7  (  -0.000000000000237,   1.999169474487996,   0.149307847074330 )   1.269141290924841
  WF centre and spread    8  (  -0.000000000000263,  -0.000000000000091,   2.229979866733727 )   0.650393724838661
  WF centre and spread    9  (  -0.000000000001419,   0.000000000000132,   2.295706896653008 )   1.210984875823942
  WF centre and spread   10  (   0.000000000000622,   0.000000000001836,   2.355424441608228 )   1.150145726143885
  WF centre and spread   11  (   0.000000000001850,   0.000000000004408,   2.355424441607502 )   1.150145726140416
  WF centre and spread   12  (   1.999169474488312,   0.000000000000182,   0.164561078849298 )   0.640738984766761
  WF centre and spread   13  (   1.999169474490461,  -0.000000000003606,   0.147408459999681 )   1.167185749521884
  WF centre and spread   14  (   1.999169474487853,  -0.000000000000664,   0.149307847075558 )   1.269141290928755
  WF centre and spread   15  (   1.999169474487789,   0.000000000001355,   0.148756600245628 )   1.182017336811336
  Sum of centres and spreads (  13.994186321417901,  13.994186321421294,  16.840100584763210 )  14.742006730428812

      0     0.147E+02     0.0000000000       14.7420067306       0.00  <-- CONV
        O_D=      0.0112580 O_OD=      2.9884328 O_TOT=     14.7420067 <-- SPRD
 ------------------------------------------------------------------------------
 Cycle:      1
  WF centre and spread    1  (   1.999169474488254,   1.999169474487826,   2.127024198433612 )   0.688848033993011
  WF centre and spread    2  (   1.999169474488460,   1.999169474488170,   2.128206589983610 )   0.688916925063879
  WF centre and spread    3  (   1.999169474487763,   1.999169474487904,   2.128206589983481 )   0.688916925062172
  WF centre and spread    4  (   0.000000000000048,   1.999169474488396,   0.164860454045239 )   0.638874022120426
  WF centre and spread    5  (   0.000000000000162,   1.999169474489111,   0.146079592329724 )   1.163455331072104
  WF centre and spread    6  (  -0.000000000001752,   1.999169474488458,   0.148751275962103 )   1.178671927986215
  WF centre and spread    7  (  -0.000000000000209,   1.999169474488141,   0.148598898681310 )   1.266102248330185
  WF centre and spread    8  (  -0.000000000000265,  -0.000000000000173,   2.228666610420623 )   0.648225096897248
  WF centre and spread    9  (  -0.000000000001433,   0.000000000000130,   2.298704076338403 )   1.206867583054501
  WF centre and spread   10  (   0.000000000000588,   0.000000000001895,   2.357452952411834 )   1.144302284095285
  WF centre and spread   11  (   0.000000000001857,   0.000000000004527,   2.357452952411013 )   1.144302284091942
  WF centre and spread   12  (   1.999169474488298,   0.000000000000158,   0.164860454045224 )   0.638874022122611
  WF centre and spread   13  (   1.999169474490566,  -0.000000000003701,   0.146079592333652 )   1.163455331077292
  WF centre and spread   14  (   1.999169474487869,  -0.000000000000612,   0.148598898682519 )   1.266102248333862
  WF centre and spread   15  (   1.999169474487809,   0.000000000001437,   0.148751275959723 )   1.178671927988781
  Sum of centres and spreads (  13.994186321418015,  13.994186321421667,  16.842294412022071 )  14.704586191289536

      1    -0.374E-01     0.2844363120       14.7045861915       0.02  <-- CONV
        O_D=      0.0058037 O_OD=      2.9564666 O_TOT=     14.7045862 <-- SPRD
 Delta: O_D= -0.5454316E-02 O_OD= -0.3196622E-01 O_TOT= -0.3742054E-01 <-- DLTA
 ------------------------------------------------------------------------------
 Cycle:      2
  WF centre and spread    1  (   1.999169474488254,   1.999169474487835,   2.126982929503002 )   0.690453206858997
  WF centre and spread    2  (   1.999169474488462,   1.999169474488165,   2.128217489455240 )   0.690407655558419
  WF centre and spread    3  (   1.999169474487759,   1.999169474487907,   2.128217489455117 )   0.690407655556685
  WF centre and spread    4  (   0.000000000000096,   1.999169474488403,   0.165232699813543 )   0.638147892343354
  WF centre and spread    5  (   0.000000000000175,   1.999169474489203,   0.144706801170001 )   1.161675482592743
  WF centre and spread    6  (  -0.000000000001807,   1.999169474488405,   0.148770009074132 )   1.176749676999809
  WF centre and spread    7  (  -0.000000000000199,   1.999169474488195,   0.148332372355839 )   1.265818843153484
  WF centre and spread    8  (  -0.000000000000270,  -0.000000000000270,   2.226581662571724 )   0.647205964867934
  WF centre and spread    9  (  -0.000000000001431,   0.000000000000127,   2.302126993416477 )   1.206685322986221
  WF centre and spread   10  (   0.000000000000568,   0.000000000001948,   2.358520466156426 )   1.141941352749602
  WF centre and spread   11  (   0.000000000001867,   0.000000000004584,   2.358520466155637 )   1.141941352746253
  WF centre and spread   12  (   1.999169474488294,   0.000000000000129,   0.165232699813447 )   0.638147892345516
  WF centre and spread   13  (   1.999169474490633,  -0.000000000003759,   0.144706801173985 )   1.161675482598131
  WF centre and spread   14  (   1.999169474487821,  -0.000000000000610,   0.148332372356995 )   1.265818843157139
  WF centre and spread   15  (   1.999169474487806,   0.000000000001526,   0.148770009071748 )   1.176749677002475
  Sum of centres and spreads (  13.994186321418027,  13.994186321421791,  16.843251261543312 )  14.693826301516751

      2    -0.108E-01     0.1542711456       14.6938263017       0.03  <-- CONV
        O_D=      0.0047313 O_OD=      2.9467792 O_TOT=     14.6938263 <-- SPRD
 Delta: O_D= -0.1072476E-02 O_OD= -0.9687414E-02 O_TOT= -0.1075989E-01 <-- DLTA
 ------------------------------------------------------------------------------
 Cycle:      3
  WF centre and spread    1  (   1.999169474488254,   1.999169474487837,   2.126973371445740 )   0.690902191673025
  WF centre and spread    2  (   1.999169474488462,   1.999169474488163,   2.128219956209982 )   0.690833201495357
  WF centre and spread    3  (   1.999169474487759,   1.999169474487906,   2.128219956209859 )   0.690833201493540
  WF centre and spread    4  (   0.000000000000128,   1.999169474488403,   0.165514516840547 )   0.637964261845575
  WF centre and spread    5  (   0.000000000000175,   1.999169474489219,   0.144120735815331 )   1.161333541524336
  WF centre and spread    6  (  -0.000000000001847,   1.999169474488389,   0.148779091652830 )   1.176263044172608
  WF centre and spread    7  (  -0.000000000000192,   1.999169474488177,   0.148285655528182 )   1.266064621831920
  WF centre and spread    8  (  -0.000000000000276,  -0.000000000000339,   2.224853997102219 )   0.646789508836332
  WF centre and spread    9  (  -0.000000000001432,   0.000000000000124,   2.304333814014328 )   1.206677544509023
  WF centre and spread   10  (   0.000000000000580,   0.000000000001959,   2.358742468177622 )   1.141320319196236
  WF centre and spread   11  (   0.000000000001868,   0.000000000004646,   2.358742468176814 )   1.141320319192899
  WF centre and spread   12  (   1.999169474488298,   0.000000000000107,   0.165514516840388 )   0.637964261847713
  WF centre and spread   13  (   1.999169474490650,  -0.000000000003782,   0.144120735819374 )   1.161333541529804
  WF centre and spread   14  (   1.999169474487799,  -0.000000000000616,   0.148285655529335 )   1.266064621835571
  WF centre and spread   15  (   1.999169474487791,   0.000000000001574,   0.148779091650461 )   1.176263044175343
  Sum of centres and spreads (  13.994186321418018,  13.994186321421765,  16.843486031013015 )  14.691927225159276

      3    -0.190E-02     0.0771352987       14.6919272253       0.05  <-- CONV
        O_D=      0.0043882 O_OD=      2.9452232 O_TOT=     14.6919272 <-- SPRD
 Delta: O_D= -0.3430816E-03 O_OD= -0.1555995E-02 O_TOT= -0.1899076E-02 <-- DLTA
 ------------------------------------------------------------------------------
 Cycle:      4
  WF centre and spread    1  (   1.999169474488254,   1.999169474487838,   2.126971852335387 )   0.691066547773875
  WF centre and spread    2  (   1.999169474488463,   1.999169474488163,   2.128220406053392 )   0.691002555841473
  WF centre and spread    3  (   1.999169474487759,   1.999169474487906,   2.128220406053271 )   0.691002555839670
  WF centre and spread    4  (   0.000000000000165,   1.999169474488405,   0.165869302835744 )   0.637851033573758
  WF centre and spread    5  (   0.000000000000176,   1.999169474489221,   0.143621171665442 )   1.161283798250343
  WF centre and spread    6  (  -0.000000000001891,   1.999169474488383,   0.148780699240728 )   1.176135509664989
  WF centre and spread    7  (  -0.000000000000188,   1.999169474488156,   0.148255609443121 )   1.266310316439375
  WF centre and spread    8  (  -0.000000000000286,  -0.000000000000422,   2.222678509446247 )   0.646378696710115
  WF centre and spread    9  (  -0.000000000001430,   0.000000000000127,   2.306721209451991 )   1.206775820913501
  WF centre and spread   10  (   0.000000000000587,   0.000000000001965,   2.358836619616651 )   1.140991518130290
  WF centre and spread   11  (   0.000000000001869,   0.000000000004722,   2.358836619615849 )   1.140991518126953
  WF centre and spread   12  (   1.999169474488302,   0.000000000000081,   0.165869302835508 )   0.637851033575892
  WF centre and spread   13  (   1.999169474490654,  -0.000000000003785,   0.143621171669574 )   1.161283798255837
  WF centre and spread   14  (   1.999169474487791,  -0.000000000000616,   0.148255609444270 )   1.266310316443033
  WF centre and spread   15  (   1.999169474487796,   0.000000000001611,   0.148780699238359 )   1.176135509667708
  Sum of centres and spreads (  13.994186321418020,  13.994186321421756,  16.843539188945535 )  14.691370529206836

      4    -0.557E-03     0.0387581006       14.6913705294       0.06  <-- CONV
        O_D=      0.0042781 O_OD=      2.9447765 O_TOT=     14.6913705 <-- SPRD
 Delta: O_D= -0.1100547E-03 O_OD= -0.4466412E-03 O_TOT= -0.5566960E-03 <-- DLTA
 ------------------------------------------------------------------------------
 Cycle:      5
  WF centre and spread    1  (   1.999169474488256,   1.999169474487838,   2.126975428684289 )   0.691218970468011
  WF centre and spread    2  (   1.999169474488463,   1.999169474488162,   2.128221096992398 )   0.691177563269386
  WF centre and spread    3  (   1.999169474487758,   1.999169474487907,   2.128221096992275 )   0.691177563267557
  WF centre and spread    4  (   0.000000000000259,   1.999169474488410,   0.166811684105079 )   0.637712259145054
  WF centre and spread    5  (   0.000000000000179,   1.999169474489203,   0.142496001545779 )   1.161364532325313
  WF centre and spread    6  (  -0.000000000001975,   1.999169474488374,   0.148779321371461 )   1.176066695077321
  WF centre and spread    7  (  -0.000000000000189,   1.999169474488115,   0.148179186827275 )   1.266622998377973
  WF centre and spread    8  (  -0.000000000000314,  -0.000000000000634,   2.216971937992859 )   0.645404555784920
  WF centre and spread    9  (  -0.000000000001427,   0.000000000000126,   2.312683894575397 )   1.207041182460164
  WF centre and spread   10  (   0.000000000000609,   0.000000000001968,   2.358973315071632 )   1.140571397549093
  WF centre and spread   11  (   0.000000000001871,   0.000000000004923,   2.358973315070821 )   1.140571397545743
  WF centre and spread   12  (   1.999169474488317,   0.000000000000010,   0.166811684104642 )   0.637712259147190
  WF centre and spread   13  (   1.999169474490668,  -0.000000000003791,   0.142496001550094 )   1.161364532330814
  WF centre and spread   14  (   1.999169474487773,  -0.000000000000614,   0.148179186828418 )   1.266622998381641
  WF centre and spread   15  (   1.999169474487796,   0.000000000001690,   0.148779321369092 )   1.176066695080071
  Sum of centres and spreads (  13.994186321418047,  13.994186321421687,  16.843552473081512 )  14.690695600210276

      5    -0.675E-03     0.0324348864       14.6906956004       0.07  <-- CONV
        O_D=      0.0044417 O_OD=      2.9439381 O_TOT=     14.6906956 <-- SPRD
 Delta: O_D=  0.1635476E-03 O_OD= -0.8384766E-03 O_TOT= -0.6749290E-03 <-- DLTA
 ------------------------------------------------------------------------------
 Cycle:      6
  WF centre and spread    1  (   1.999169474488256,   1.999169474487833,   2.126996297603142 )   0.691727480078056
  WF centre and spread    2  (   1.999169474488460,   1.999169474488166,   2.128222821171492 )   0.691792437318410
  WF centre and spread    3  (   1.999169474487754,   1.999169474487909,   2.128222821171368 )   0.691792437316394
  WF centre and spread    4  (   0.000000000000888,   1.999169474488454,   0.173200069837950 )   0.637586378113681
  WF centre and spread    5  (   0.000000000000190,   1.999169474489196,   0.135451422549387 )   1.162226027371394
  WF centre and spread    6  (  -0.000000000002612,   1.999169474488338,   0.148777934857374 )   1.176117132060393
  WF centre and spread    7  (  -0.000000000000191,   1.999169474487973,   0.147783532020839 )   1.267742624513916
  WF centre and spread    8  (  -0.000000000000494,  -0.000000000002031,   2.178590055924873 )   0.638944004786059
  WF centre and spread    9  (  -0.000000000001409,   0.000000000000127,   2.352222591917005 )   1.206264307965717
  WF centre and spread   10  (   0.000000000000782,   0.000000000001971,   2.359455762992767 )   1.139674173948291
  WF centre and spread   11  (   0.000000000001881,   0.000000000006335,   2.359455762991945 )   1.139674173945133
  WF centre and spread   12  (   1.999169474488417,  -0.000000000000475,   0.173200069836177 )   0.637586378116047
  WF centre and spread   13  (   1.999169474490687,  -0.000000000003795,   0.135451422555087 )   1.162226027377073
  WF centre and spread   14  (   1.999169474487657,  -0.000000000000615,   0.147783532021978 )   1.267742624517585
  WF centre and spread   15  (   1.999169474487822,   0.000000000002215,   0.148777934854996 )   1.176117132063369
  Sum of centres and spreads (  13.994186321418088,  13.994186321421607,  16.843592032306379 )  14.687213339491535

      6    -0.348E-02     0.0463445694       14.6872133397       0.09  <-- CONV
        O_D=      0.0064648 O_OD=      2.9384327 O_TOT=     14.6872133 <-- SPRD
 Delta: O_D=  0.2023138E-02 O_OD= -0.5505399E-02 O_TOT= -0.3482261E-02 <-- DLTA
 ------------------------------------------------------------------------------
 Cycle:      7
  WF centre and spread    1  (   1.999169474488256,   1.999169474487835,   2.126985474584612 )   0.691464884782954
  WF centre and spread    2  (   1.999169474488460,   1.999169474488164,   2.128220564883583 )   0.691503673214715
  WF centre and spread    3  (   1.999169474487756,   1.999169474487908,   2.128220564883460 )   0.691503673212672
  WF centre and spread    4  (   0.000000000000922,   1.999169474488460,   0.173639963607214 )   0.637467333068622
  WF centre and spread    5  (   0.000000000000186,   1.999169474489205,   0.135221826768550 )   1.161912657816138
  WF centre and spread    6  (  -0.000000000002651,   1.999169474488353,   0.148783881784711 )   1.176043306592956
  WF centre and spread    7  (  -0.000000000000187,   1.999169474488004,   0.147918528035314 )   1.267096316474868
  WF centre and spread    8  (  -0.000000000000499,  -0.000000000002106,   2.175940532354529 )   0.637977405922492
  WF centre and spread    9  (  -0.000000000001410,   0.000000000000128,   2.354741362388928 )   1.205285972723618
  WF centre and spread   10  (   0.000000000000792,   0.000000000001973,   2.359255960902678 )   1.139541700072988
  WF centre and spread   11  (   0.000000000001878,   0.000000000006388,   2.359255960901850 )   1.139541700069826
  WF centre and spread   12  (   1.999169474488420,  -0.000000000000507,   0.173639963605365 )   0.637467333071030
  WF centre and spread   13  (   1.999169474490674,  -0.000000000003790,   0.135221826774297 )   1.161912657821835
  WF centre and spread   14  (   1.999169474487645,  -0.000000000000619,   0.147918528036455 )   1.267096316478518
  WF centre and spread   15  (   1.999169474487799,   0.000000000002238,   0.148783881782342 )   1.176043306595836
  Sum of centres and spreads (  13.994186321418045,  13.994186321421637,  16.843748821293890 )  14.681858237919073

      7    -0.536E-02     0.1420985763       14.6818582381       0.11  <-- CONV
        O_D=      0.0050338 O_OD=      2.9345085 O_TOT=     14.6818582 <-- SPRD
 Delta: O_D= -0.1430965E-02 O_OD= -0.3924137E-02 O_TOT= -0.5355102E-02 <-- DLTA
 ------------------------------------------------------------------------------
 Cycle:      8
  WF centre and spread    1  (   1.999169474488255,   1.999169474487837,   2.126971549471591 )   0.691140477485277
  WF centre and spread    2  (   1.999169474488463,   1.999169474488163,   2.128218205694405 )   0.691117010599523
  WF centre and spread    3  (   1.999169474487759,   1.999169474487908,   2.128218205694285 )   0.691117010597546
  WF centre and spread    4  (   0.000000000000997,   1.999169474488476,   0.174585596011433 )   0.637544324892338
  WF centre and spread    5  (   0.000000000000182,   1.999169474489233,   0.134652343148030 )   1.161561957900750
  WF centre and spread    6  (  -0.000000000002743,   1.999169474488374,   0.148789854429760 )   1.176120035386721
  WF centre and spread    7  (  -0.000000000000184,   1.999169474488061,   0.148117175604019 )   1.266384913784099
  WF centre and spread    8  (  -0.000000000000516,  -0.000000000002263,   2.169857961499385 )   0.636491582339525
  WF centre and spread    9  (  -0.000000000001411,   0.000000000000131,   2.360589065171720 )   1.204137639217263
  WF centre and spread   10  (   0.000000000000816,   0.000000000001971,   2.358951712985063 )   1.140529379213278
  WF centre and spread   11  (   0.000000000001872,   0.000000000006548,   2.358951712984258 )   1.140529379210040
  WF centre and spread   12  (   1.999169474488436,  -0.000000000000580,   0.174585596009409 )   0.637544324894638
  WF centre and spread   13  (   1.999169474490658,  -0.000000000003790,   0.134652343153947 )   1.161561957906434
  WF centre and spread   14  (   1.999169474487630,  -0.000000000000624,   0.148117175605164 )   1.266384913787765
  WF centre and spread   15  (   1.999169474487794,   0.000000000002294,   0.148789854427397 )   1.176120035389455
  Sum of centres and spreads (  13.994186321418008,  13.994186321421740,  16.844048351889864 )  14.678284942604648

      8    -0.357E-02     0.0927907005       14.6782849428       0.12  <-- CONV
        O_D=      0.0049837 O_OD=      2.9309854 O_TOT=     14.6782849 <-- SPRD
 Delta: O_D= -0.5017355E-04 O_OD= -0.3523122E-02 O_TOT= -0.3573295E-02 <-- DLTA
 ------------------------------------------------------------------------------
 Cycle:      9
  WF centre and spread    1  (   1.999169474488253,   1.999169474487836,   2.126966356029699 )   0.690832787162540
  WF centre and spread    2  (   1.999169474488462,   1.999169474488163,   2.128215777110642 )   0.690717960190469
  WF centre and spread    3  (   1.999169474487758,   1.999169474487906,   2.128215777110526 )   0.690717960188415
  WF centre and spread    4  (   0.000000000001157,   1.999169474488500,   0.176458643615081 )   0.637917021454204
  WF centre and spread    5  (   0.000000000000175,   1.999169474489260,   0.133278614167452 )   1.161028487451783
  WF centre and spread    6  (  -0.000000000002898,   1.999169474488391,   0.148785149731923 )   1.176320473985331
  WF centre and spread    7  (  -0.000000000000187,   1.999169474488119,   0.148289662463056 )   1.265702416927476
  WF centre and spread    8  (  -0.000000000000562,  -0.000000000002599,   2.156762207376468 )   0.633858753017135
  WF centre and spread    9  (  -0.000000000001420,   0.000000000000124,   2.373354944914171 )   1.202215440184251
  WF centre and spread   10  (   0.000000000000865,   0.000000000001959,   2.358660869886411 )   1.142113105785961
  WF centre and spread   11  (   0.000000000001864,   0.000000000006907,   2.358660869885606 )   1.142113105782807
  WF centre and spread   12  (   1.999169474488472,  -0.000000000000720,   0.176458643612700 )   0.637917021456611
  WF centre and spread   13  (   1.999169474490647,  -0.000000000003776,   0.133278614173726 )   1.161028487457599
  WF centre and spread   14  (   1.999169474487611,  -0.000000000000619,   0.148289662464208 )   1.265702416931085
  WF centre and spread   15  (   1.999169474487789,   0.000000000002403,   0.148785149729549 )   1.176320473988065
  Sum of centres and spreads (  13.994186321417990,  13.994186321421857,  16.844460942271215 )  14.674505911963720

      9    -0.378E-02     0.0792657384       14.6745059121       0.14  <-- CONV
        O_D=      0.0056515 O_OD=      2.9265386 O_TOT=     14.6745059 <-- SPRD
 Delta: O_D=  0.6678104E-03 O_OD= -0.4446841E-02 O_TOT= -0.3779031E-02 <-- DLTA
 ------------------------------------------------------------------------------
 Cycle:     10
  WF centre and spread    1  (   1.999169474488250,   1.999169474487832,   2.126960009066975 )   0.690432549389099
  WF centre and spread    2  (   1.999169474488458,   1.999169474488165,   2.128194907953908 )   0.690092216586354
  WF centre and spread    3  (   1.999169474487764,   1.999169474487913,   2.128194907953802 )   0.690092216583599
  WF centre and spread    4  (   0.000000000001846,   1.999169474488595,   0.184123457931567 )   0.640003949104978
  WF centre and spread    5  (   0.000000000000188,   1.999169474489257,   0.126784685840982 )   1.159798852277061
  WF centre and spread    6  (  -0.000000000003577,   1.999169474488435,   0.148766322853038 )   1.177297822814025
  WF centre and spread    7  (  -0.000000000000206,   1.999169474488167,   0.148628265122600 )   1.265491210857888
  WF centre and spread    8  (  -0.000000000000777,  -0.000000000004024,   2.100630171826356 )   0.622582028062799
  WF centre and spread    9  (  -0.000000000001440,   0.000000000000088,   2.428718861740422 )   1.188703049359109
  WF centre and spread   10  (   0.000000000001055,   0.000000000001922,   2.358031756220193 )   1.147654857625322
  WF centre and spread   11  (   0.000000000001864,   0.000000000008437,   2.358031756219408 )   1.147654857622332
  WF centre and spread   12  (   1.999169474488633,  -0.000000000001284,   0.184123457927677 )   0.640003949108163
  WF centre and spread   13  (   1.999169474490621,  -0.000000000003740,   0.126784685848818 )   1.159798852283311
  WF centre and spread   14  (   1.999169474487545,  -0.000000000000586,   0.148628265123779 )   1.265491210861377
  WF centre and spread   15  (   1.999169474487801,   0.000000000002874,   0.148766322850619 )   1.177297822817124
  Sum of centres and spreads (  13.994186321418026,  13.994186321422051,  16.845367834480143 )  14.662395445352558

     10    -0.121E-01     0.1031899938       14.6623954455       0.15  <-- CONV
        O_D=      0.0087777 O_OD=      2.9113019 O_TOT=     14.6623954 <-- SPRD
 Delta: O_D=  0.3126227E-02 O_OD= -0.1523669E-01 O_TOT= -0.1211047E-01 <-- DLTA
 ------------------------------------------------------------------------------
 Cycle:     11
  WF centre and spread    1  (   1.999169474488252,   1.999169474487835,   2.126961145338091 )   0.690355770855232
  WF centre and spread    2  (   1.999169474488460,   1.999169474488165,   2.128198047478490 )   0.690133399096718
  WF centre and spread    3  (   1.999169474487759,   1.999169474487912,   2.128198047478378 )   0.690133399093684
  WF centre and spread    4  (   0.000000000001900,   1.999169474488594,   0.184625313516163 )   0.638770070214641
  WF centre and spread    5  (   0.000000000000191,   1.999169474489213,   0.125916882920318 )   1.159662249351165
  WF centre and spread    6  (  -0.000000000003649,   1.999169474488428,   0.148774775690588 )   1.176904741789036
  WF centre and spread    7  (  -0.000000000000201,   1.999169474488064,   0.148592552861166 )   1.265627932437007
  WF centre and spread    8  (  -0.000000000000774,  -0.000000000004127,   2.095838731085550 )   0.619908308232688
  WF centre and spread    9  (  -0.000000000001423,   0.000000000000086,   2.433741763348064 )   1.185769484886801
  WF centre and spread   10  (   0.000000000001060,   0.000000000001932,   2.358104332456997 )   1.144632801493688
  WF centre and spread   11  (   0.000000000001862,   0.000000000008522,   2.358104332456230 )   1.144632801490660
  WF centre and spread   12  (   1.999169474488649,  -0.000000000001331,   0.184625313512149 )   0.638770070217998
  WF centre and spread   13  (   1.999169474490614,  -0.000000000003745,   0.125916882928263 )   1.159662249357313
  WF centre and spread   14  (   1.999169474487496,  -0.000000000000603,   0.148592552862331 )   1.265627932440585
  WF centre and spread   15  (   1.999169474487797,   0.000000000002945,   0.148774775688201 )   1.176904741791852
  Sum of centres and spreads (  13.994186321417994,  13.994186321421893,  16.844965449620975 )  14.647495952749082

     11    -0.149E-01     0.2311061012       14.6474959529       0.16  <-- CONV
        O_D=      0.0062470 O_OD=      2.8989331 O_TOT=     14.6474960 <-- SPRD
 Delta: O_D= -0.2530703E-02 O_OD= -0.1236879E-01 O_TOT= -0.1489949E-01 <-- DLTA
 ------------------------------------------------------------------------------
 Cycle:     12
  WF centre and spread    1  (   1.999169474488253,   1.999169474487841,   2.126974186185099 )   0.690794231664402
  WF centre and spread    2  (   1.999169474488462,   1.999169474488163,   2.128209423517760 )   0.690742475888605
  WF centre and spread    3  (   1.999169474487758,   1.999169474487918,   2.128209423517651 )   0.690742475885008
  WF centre and spread    4  (   0.000000000002053,   1.999169474488606,   0.185980032237002 )   0.637563949754367
  WF centre and spread    5  (   0.000000000000201,   1.999169474489136,   0.123728903359850 )   1.160339966115370
  WF centre and spread    6  (  -0.000000000003826,   1.999169474488412,   0.148793071497694 )   1.176598237234100
  WF centre and spread    7  (  -0.000000000000192,   1.999169474487886,   0.148411178981088 )   1.266898079191688
  WF centre and spread    8  (  -0.000000000000789,  -0.000000000004394,   2.082865807243887 )   0.616071619789690
  WF centre and spread    9  (  -0.000000000001401,   0.000000000000077,   2.447427358333837 )   1.180068436859631
  WF centre and spread   10  (   0.000000000001057,   0.000000000001957,   2.358423707535804 )   1.141910944723916
  WF centre and spread   11  (   0.000000000001870,   0.000000000008748,   2.358423707535032 )   1.141910944720800
  WF centre and spread   12  (   1.999169474488690,  -0.000000000001445,   0.185980032232665 )   0.637563949758140
  WF centre and spread   13  (   1.999169474490628,  -0.000000000003764,   0.123728903368055 )   1.160339966121406
  WF centre and spread   14  (   1.999169474487407,  -0.000000000000623,   0.148411178982233 )   1.266898079195602
  WF centre and spread   15  (   1.999169474487781,   0.000000000003111,   0.148793071495341 )   1.176598237236584
  Sum of centres and spreads (  13.994186321417951,  13.994186321421633,  16.844359986023001 )  14.635041594139295

     12    -0.125E-01     0.1579698196       14.6350415943       0.18  <-- CONV
        O_D=      0.0063007 O_OD=      2.8864250 O_TOT=     14.6350416 <-- SPRD
 Delta: O_D=  0.5371140E-04 O_OD= -0.1250807E-01 O_TOT= -0.1245436E-01 <-- DLTA
 ------------------------------------------------------------------------------
 Cycle:     13
  WF centre and spread    1  (   1.999169474488257,   1.999169474487837,   2.127000133927464 )   0.691872853843053
  WF centre and spread    2  (   1.999169474488463,   1.999169474488164,   2.128217662579864 )   0.691971031751750
  WF centre and spread    3  (   1.999169474487755,   1.999169474487920,   2.128217662579747 )   0.691971031747698
  WF centre and spread    4  (   0.000000000002338,   1.999169474488641,   0.188677995234169 )   0.637496449053665
  WF centre and spread    5  (   0.000000000000214,   1.999169474489112,   0.119875711231575 )   1.161620874696365
  WF centre and spread    6  (  -0.000000000004105,   1.999169474488360,   0.148804665046310 )   1.176144606268202
  WF centre and spread    7  (  -0.000000000000185,   1.999169474487733,   0.147892975074549 )   1.267978322257506
  WF centre and spread    8  (  -0.000000000000868,  -0.000000000004888,   2.057714191432297 )   0.611084067467932
  WF centre and spread    9  (  -0.000000000001369,   0.000000000000039,   2.474169682729795 )   1.169641545077470
  WF centre and spread   10  (   0.000000000001103,   0.000000000001979,   2.359243885643476 )   1.138952021307089
  WF centre and spread   11  (   0.000000000001887,   0.000000000009261,   2.359243885642679 )   1.138952021304058
  WF centre and spread   12  (   1.999169474488771,  -0.000000000001658,   0.188677995229241 )   0.637496449057817
  WF centre and spread   13  (   1.999169474490651,  -0.000000000003790,   0.119875711240370 )   1.161620874702556
  WF centre and spread   14  (   1.999169474487307,  -0.000000000000626,   0.147892975075677 )   1.267978322261491
  WF centre and spread   15  (   1.999169474487788,   0.000000000003401,   0.148804665043950 )   1.176144606271285
  Sum of centres and spreads (  13.994186321418008,  13.994186321421486,  16.844309797711166 )  14.620925077067909

     13    -0.141E-01     0.1596057584       14.6209250773       0.20  <-- CONV
        O_D=      0.0065622 O_OD=      2.8720470 O_TOT=     14.6209251 <-- SPRD
 Delta: O_D=  0.2614734E-03 O_OD= -0.1437799E-01 O_TOT= -0.1411652E-01 <-- DLTA
 ------------------------------------------------------------------------------
 Cycle:     14
  WF centre and spread    1  (   1.999169474488260,   1.999169474487828,   2.127000228679207 )   0.694126209189204
  WF centre and spread    2  (   1.999169474488465,   1.999169474488165,   2.128209240740729 )   0.694348711571495
  WF centre and spread    3  (   1.999169474487756,   1.999169474487920,   2.128209240740606 )   0.694348711567232
  WF centre and spread    4  (   0.000000000003041,   1.999169474488737,   0.195563259311248 )   0.639640548163762
  WF centre and spread    5  (   0.000000000000238,   1.999169474489156,   0.111194871992544 )   1.164064319264338
  WF centre and spread    6  (  -0.000000000004792,   1.999169474488248,   0.148821536324779 )   1.175764569937433
  WF centre and spread    7  (  -0.000000000000179,   1.999169474487600,   0.146812579003742 )   1.269608861324322
  WF centre and spread    8  (  -0.000000000001066,  -0.000000000006026,   1.998129398812232 )   0.599702028302307
  WF centre and spread    9  (  -0.000000000001325,  -0.000000000000122,   2.537540081007518 )   1.136323094926179
  WF centre and spread   10  (   0.000000000001249,   0.000000000001988,   2.360933747749430 )   1.139090794788496
  WF centre and spread   11  (   0.000000000001921,   0.000000000010601,   2.360933747748553 )   1.139090794785903
  WF centre and spread   12  (   1.999169474488958,  -0.000000000002197,   0.195563259304868 )   0.639640548168044
  WF centre and spread   13  (   1.999169474490690,  -0.000000000003832,   0.111194872002808 )   1.164064319271122
  WF centre and spread   14  (   1.999169474487114,  -0.000000000000613,   0.146812579004875 )   1.269608861328113
  WF centre and spread   15  (   1.999169474487833,   0.000000000004026,   0.148821536322396 )   1.175764569942188
  Sum of centres and spreads (  13.994186321418162,  13.994186321421481,  16.845740178745540 )  14.595186942530120

     14    -0.257E-01     0.1892472015       14.5951869427       0.21  <-- CONV
        O_D=      0.0115947 O_OD=      2.8412764 O_TOT=     14.5951869 <-- SPRD
 Delta: O_D=  0.5032503E-02 O_OD= -0.3077064E-01 O_TOT= -0.2573813E-01 <-- DLTA
 ------------------------------------------------------------------------------
 Cycle:     15
  WF centre and spread    1  (   1.999169474488620,   1.999169474487226,   2.117520302335587 )   0.837380318423133
  WF centre and spread    2  (   1.999169474488916,   1.999169474487805,   2.123899212924862 )   0.839890085724917
  WF centre and spread    3  (   1.999169474488721,   1.999169474487552,   2.123899212925954 )   0.839890085732417
  WF centre and spread    4  (   0.000000000023245,   1.999169474489018,   0.378346593247690 )   0.969479487952784
  WF centre and spread    5  (   0.000000000001878,   1.999169474485527,  -0.151355759008386 )   1.419539263109951
  WF centre and spread    6  (  -0.000000000026713,   1.999169474483493,   0.152942324933883 )   1.269172503869441
  WF centre and spread    7  (   0.000000000000277,   1.999169474485590,   0.110046587494143 )   1.582867319309525
  WF centre and spread    8  (  -0.000000000002137,   0.000000000005369,   2.776286070377327 )   1.050309909336514
  WF centre and spread    9  (  -0.000000000004288,  -0.000000000017685,   1.906334217894216 )   1.254706733756263
  WF centre and spread   10  (   0.000000000008130,   0.000000000002577,   2.414497236067953 )   1.575011939638842
  WF centre and spread   11  (   0.000000000002646,   0.000000000028324,   2.414497236067544 )   1.575011939612686
  WF centre and spread   12  (   1.999169474492498,  -0.000000000018591,   0.378346593209676 )   0.969479487928066
  WF centre and spread   13  (   1.999169474489305,  -0.000000000005700,  -0.151355758962088 )   1.419539263126653
  WF centre and spread   14  (   1.999169474480647,  -0.000000000000056,   0.110046587499645 )   1.582867319323794
  WF centre and spread   15  (   1.999169474490047,   0.000000000023715,   0.152942324931863 )   1.269172503892779
  Sum of centres and spreads (  13.994186321421793,  13.994186321424165,  16.856892981939872 )  18.454318160737770

     15     0.386E+01     0.3146974927       18.4543181609       0.23  <-- CONV
        O_D=      0.3834815 O_OD=      6.3285208 O_TOT=     18.4543182 <-- SPRD
 Delta: O_D=  0.3718868E+00 O_OD=  0.3487244E+01 O_TOT=  0.3859131E+01 <-- DLTA
 ------------------------------------------------------------------------------
 Cycle:     16
  WF centre and spread    1  (   1.999169474488567,   1.999169474487692,   2.123196260118148 )   0.748318636864578
  WF centre and spread    2  (   1.999169474488766,   1.999169474488107,   2.126005206806266 )   0.740590787014206
  WF centre and spread    3  (   1.999169474488033,   1.999169474487669,   2.126005206806749 )   0.740590787012589
  WF centre and spread    4  (   0.000000000023522,   1.999169474491069,   0.400505273092743 )   0.749997450100165
  WF centre and spread    5  (   0.000000000002799,   1.999169474487790,  -0.133879954429559 )   1.186027421046051
  WF centre and spread    6  (  -0.000000000026784,   1.999169474485224,   0.150898915076936 )   1.187502714057755
  WF centre and spread    7  (  -0.000000000000323,   1.999169474485392,   0.128393460734602 )   1.348626499907724
  WF centre and spread    8  (  -0.000000000002844,   0.000000000006937,   2.742812383048460 )   0.849094510571375
  WF centre and spread    9  (  -0.000000000003530,  -0.000000000018823,   1.853392701112830 )   0.978962364422533
  WF centre and spread   10  (   0.000000000006046,   0.000000000002465,   2.390688904887215 )   1.253381784824084
  WF centre and spread   11  (   0.000000000002957,   0.000000000022083,   2.390688904883937 )   1.253381784804523
  WF centre and spread   12  (   1.999169474492653,  -0.000000000020352,   0.400505273054846 )   0.749997450080233
  WF centre and spread   13  (   1.999169474489515,  -0.000000000006773,  -0.133879954383842 )   1.186027421029598
  WF centre and spread   14  (   1.999169474480160,  -0.000000000000322,   0.128393460736822 )   1.348626499887732
  WF centre and spread   15  (   1.999169474489735,   0.000000000024690,   0.150898915075638 )   1.187502714122816
  Sum of centres and spreads (  13.994186321419271,  13.994186321422848,  16.844624956621789 )  15.508628825745959

     16    -0.295E+01     2.8870561982       15.5086288259       0.24  <-- CONV
        O_D=      0.1146652 O_OD=      3.6516477 O_TOT=     15.5086288 <-- SPRD
 Delta: O_D= -0.2688163E+00 O_OD= -0.2676873E+01 O_TOT= -0.2945689E+01 <-- DLTA
 ------------------------------------------------------------------------------
 Cycle:     17
  WF centre and spread    1  (   1.999169474488574,   1.999169474487955,   2.125950053719404 )   0.724847561455432
  WF centre and spread    2  (   1.999169474488591,   1.999169474488069,   2.127666712855482 )   0.710973447149021
  WF centre and spread    3  (   1.999169474488018,   1.999169474487653,   2.127666712855938 )   0.710973447149190
  WF centre and spread    4  (   0.000000000023614,   1.999169474492638,   0.411006355100753 )   0.670300913103726
  WF centre and spread    5  (   0.000000000003557,   1.999169474487397,  -0.119617671409118 )   1.087232763362760
  WF centre and spread    6  (  -0.000000000027261,   1.999169474487033,   0.149520210348565 )   1.185417957187244
  WF centre and spread    7  (  -0.000000000000598,   1.999169474485069,   0.142118468243758 )   1.303984638068785
  WF centre and spread    8  (  -0.000000000002912,   0.000000000006557,   2.715160916952970 )   0.771312760884294
  WF centre and spread    9  (  -0.000000000003386,  -0.000000000019046,   1.833386629563667 )   0.860621778623825
  WF centre and spread   10  (   0.000000000004227,   0.000000000002172,   2.371121957244799 )   1.173678151920109
  WF centre and spread   11  (   0.000000000002943,   0.000000000019168,   2.371121957242663 )   1.173678151890040
  WF centre and spread   12  (   1.999169474495145,  -0.000000000020249,   0.411006355063805 )   0.670300913109181
  WF centre and spread   13  (   1.999169474489237,  -0.000000000006432,  -0.119617671366951 )   1.087232763361430
  WF centre and spread   14  (   1.999169474480546,  -0.000000000000770,   0.142118468245985 )   1.303984638066169
  WF centre and spread   15  (   1.999169474488302,   0.000000000024188,   0.149520210346980 )   1.185417957227700
  Sum of centres and spreads (  13.994186321418596,  13.994186321421404,  16.838129665008701 )  14.619957842558904

     17    -0.889E+00     1.6415404161       14.6199578427       0.26  <-- CONV
        O_D=      0.0322765 O_OD=      2.8453655 O_TOT=     14.6199578 <-- SPRD
 Delta: O_D= -0.8238872E-01 O_OD= -0.8062823E+00 O_TOT= -0.8886710E+00 <-- DLTA
 ------------------------------------------------------------------------------
 Cycle:     18
  WF centre and spread    1  (   1.999169474488343,   1.999169474487886,   2.126922531299288 )   0.698775342327341
  WF centre and spread    2  (   1.999169474488477,   1.999169474488141,   2.128155904107409 )   0.693545583515602
  WF centre and spread    3  (   1.999169474487811,   1.999169474487858,   2.128155904107404 )   0.693545583513288
  WF centre and spread    4  (   0.000000000024153,   1.999169474493230,   0.415872727974280 )   0.654049628612513
  WF centre and spread    5  (   0.000000000002924,   1.999169474487368,  -0.112267034466713 )   1.030747824374223
  WF centre and spread    6  (  -0.000000000028528,   1.999169474488013,   0.148936761903032 )   1.177552226064748
  WF centre and spread    7  (  -0.000000000000091,   1.999169474485019,   0.145758387324770 )   1.276944838531825
  WF centre and spread    8  (  -0.000000000001042,   0.000000000005120,   2.702645635853445 )   0.720086878382669
  WF centre and spread    9  (  -0.000000000002934,  -0.000000000019081,   1.829149623827736 )   0.821980514581894
  WF centre and spread   10  (   0.000000000002980,   0.000000000002161,   2.362346794381406 )   1.146311450318578
  WF centre and spread   11  (   0.000000000001871,   0.000000000018537,   2.362346794380513 )   1.146311450310302
  WF centre and spread   12  (   1.999169474496149,  -0.000000000020223,   0.415872727938399 )   0.654049628604360
  WF centre and spread   13  (   1.999169474489564,  -0.000000000006081,  -0.112267034426345 )   1.030747824421471
  WF centre and spread   14  (   1.999169474480657,  -0.000000000000707,   0.145758387326005 )   1.276944838537132
  WF centre and spread   15  (   1.999169474487900,   0.000000000024139,   0.148936761900680 )   1.177552226068704
  Sum of centres and spreads (  13.994186321418233,  13.994186321421379,  16.836324873431309 )  14.199145838164654

     18    -0.421E+00     1.1574319338       14.1991458383       0.27  <-- CONV
        O_D=      0.0207020 O_OD=      2.4361280 O_TOT=     14.1991458 <-- SPRD
 Delta: O_D= -0.1157448E-01 O_OD= -0.4092375E+00 O_TOT= -0.4208120E+00 <-- DLTA
 ------------------------------------------------------------------------------
 Cycle:     19
  WF centre and spread    1  (   1.999169474488266,   1.999169474487834,   2.127004236704130 )   0.691974797660682
  WF centre and spread    2  (   1.999169474488466,   1.999169474488163,   2.128176502941833 )   0.690416464666878
  WF centre and spread    3  (   1.999169474487763,   1.999169474487902,   2.128176502941725 )   0.690416464664914
  WF centre and spread    4  (   0.000000000024453,   1.999169474493495,   0.419030375168036 )   0.653682953143014
  WF centre and spread    5  (   0.000000000003030,   1.999169474487185,  -0.112449462093973 )   1.015881119278833
  WF centre and spread    6  (  -0.000000000029084,   1.999169474488201,   0.148805908134919 )   1.176694485497133
  WF centre and spread    7  (  -0.000000000000165,   1.999169474485107,   0.146299916735440 )   1.269829645528656
  WF centre and spread    8  (  -0.000000000000808,   0.000000000004921,   2.702313913043275 )   0.708268120132028
  WF centre and spread    9  (  -0.000000000003104,  -0.000000000019157,   1.826070163706100 )   0.808374249694126
  WF centre and spread   10  (   0.000000000002793,   0.000000000002022,   2.360457100186606 )   1.140112638224005
  WF centre and spread   11  (   0.000000000001905,   0.000000000018576,   2.360457100185859 )   1.140112638222063
  WF centre and spread   12  (   1.999169474496415,  -0.000000000020488,   0.419030375132933 )   0.653682953131386
  WF centre and spread   13  (   1.999169474489533,  -0.000000000005934,  -0.112449462054512 )   1.015881119335718
  WF centre and spread   14  (   1.999169474480531,  -0.000000000000650,   0.146299916736596 )   1.269829645531443
  WF centre and spread   15  (   1.999169474487933,   0.000000000024383,   0.148805908132561 )   1.176694485501096
  Sum of centres and spreads (  13.994186321417928,  13.994186321421559,  16.836028995601524 )  14.101851780212002

     19    -0.973E-01     0.6093347860       14.1018517804       0.29  <-- CONV
        O_D=      0.0082803 O_OD=      2.3512556 O_TOT=     14.1018518 <-- SPRD
 Delta: O_D= -0.1242167E-01 O_OD= -0.8487239E-01 O_TOT= -0.9729406E-01 <-- DLTA
 ------------------------------------------------------------------------------
 Cycle:     20
  WF centre and spread    1  (   1.999169474488254,   1.999169474487834,   2.127009704248632 )   0.690973723452004
  WF centre and spread    2  (   1.999169474488465,   1.999169474488165,   2.128180574328320 )   0.690180547033142
  WF centre and spread    3  (   1.999169474487762,   1.999169474487900,   2.128180574328200 )   0.690180547031336
  WF centre and spread    4  (   0.000000000024915,   1.999169474493707,   0.423261940684705 )   0.653748466469889
  WF centre and spread    5  (   0.000000000003209,   1.999169474486976,  -0.115201650717916 )   1.007049516788411
  WF centre and spread    6  (  -0.000000000029733,   1.999169474488312,   0.148769088857455 )   1.177013522585360
  WF centre and spread    7  (  -0.000000000000218,   1.999169474485082,   0.147112586547640 )   1.267308867217954
  WF centre and spread    8  (  -0.000000000000879,   0.000000000004897,   2.704878994712407 )   0.707893575682222
  WF centre and spread    9  (  -0.000000000003073,  -0.000000000019258,   1.820792308838740 )   0.795526951187587
  WF centre and spread   10  (   0.000000000002807,   0.000000000001971,   2.359430975661892 )   1.141840984932559
  WF centre and spread   11  (   0.000000000001899,   0.000000000018779,   2.359430975661117 )   1.141840984929367
  WF centre and spread   12  (   1.999169474496847,  -0.000000000020899,   0.423261940650484 )   0.653748466458496
  WF centre and spread   13  (   1.999169474489467,  -0.000000000006033,  -0.115201650679488 )   1.007049516844898
  WF centre and spread   14  (   1.999169474480220,  -0.000000000000626,   0.147112586548831 )   1.267308867221143
  WF centre and spread   15  (   1.999169474487863,   0.000000000024881,   0.148769088855102 )   1.177013522588862
  Sum of centres and spreads (  13.994186321417805,  13.994186321421688,  16.835788038526118 )  14.068678060423238

     20    -0.332E-01     0.3077438702       14.0686780606       0.30  <-- CONV
        O_D=      0.0069203 O_OD=      2.3194419 O_TOT=     14.0686781 <-- SPRD
 Delta: O_D= -0.1360002E-02 O_OD= -0.3181372E-01 O_TOT= -0.3317372E-01 <-- DLTA
 ------------------------------------------------------------------------------
 Cycle:     21
  WF centre and spread    1  (   1.999169474488253,   1.999169474487829,   2.127000469369459 )   0.690700896606106
  WF centre and spread    2  (   1.999169474488466,   1.999169474488165,   2.128207335163024 )   0.690354613659316
  WF centre and spread    3  (   1.999169474487765,   1.999169474487897,   2.128207335162908 )   0.690354613657389
  WF centre and spread    4  (   0.000000000025978,   1.999169474494153,   0.431692542180392 )   0.656590509408138
  WF centre and spread    5  (   0.000000000003638,   1.999169474486646,  -0.122287364999296 )   0.994014954387965
  WF centre and spread    6  (  -0.000000000031231,   1.999169474488400,   0.148792163668212 )   1.177204725034090
  WF centre and spread    7  (  -0.000000000000225,   1.999169474484843,   0.148391401907075 )   1.265017816279777
  WF centre and spread    8  (  -0.000000000001087,   0.000000000004824,   2.711507797072366 )   0.716417975307463
  WF centre and spread    9  (  -0.000000000003002,  -0.000000000019458,   1.811345796351669 )   0.774191128785200
  WF centre and spread   10  (   0.000000000002965,   0.000000000001962,   2.358185382669189 )   1.144251416598531
  WF centre and spread   11  (   0.000000000001860,   0.000000000019263,   2.358185382668391 )   1.144251416593281
  WF centre and spread   12  (   1.999169474497650,  -0.000000000021912,   0.431692542148224 )   0.656590509395738
  WF centre and spread   13  (   1.999169474489434,  -0.000000000006374,  -0.122287364962944 )   0.994014954441300
  WF centre and spread   14  (   1.999169474479440,  -0.000000000000599,   0.148391401908289 )   1.265017816283241
  WF centre and spread   15  (   1.999169474487832,   0.000000000026161,   0.148792163665864 )   1.177204725037637
  Sum of centres and spreads (  13.994186321417736,  13.994186321421800,  16.835816983972819 )  14.036178071475149

     21    -0.325E-01     0.2375202701       14.0361780717       0.32  <-- CONV
        O_D=      0.0063512 O_OD=      2.2875110 O_TOT=     14.0361781 <-- SPRD
 Delta: O_D= -0.5691022E-03 O_OD= -0.3193089E-01 O_TOT= -0.3249999E-01 <-- DLTA
 ------------------------------------------------------------------------------
 Cycle:     22
  WF centre and spread    1  (   1.999169474488250,   1.999169474487834,   2.126996707901821 )   0.690702737636590
  WF centre and spread    2  (   1.999169474488466,   1.999169474488162,   2.128210755488125 )   0.690420644290356
  WF centre and spread    3  (   1.999169474487762,   1.999169474487901,   2.128210755488004 )   0.690420644288521
  WF centre and spread    4  (   0.000000000026214,   1.999169474494251,   0.433482763403590 )   0.656578492251998
  WF centre and spread    5  (   0.000000000003757,   1.999169474486589,  -0.124288328215039 )   0.991061765612106
  WF centre and spread    6  (  -0.000000000031584,   1.999169474488398,   0.148792078476853 )   1.176831006483228
  WF centre and spread    7  (  -0.000000000000214,   1.999169474484719,   0.148357808284048 )   1.265216851801958
  WF centre and spread    8  (  -0.000000000001055,   0.000000000004719,   2.713392518929564 )   0.716493036059421
  WF centre and spread    9  (  -0.000000000003046,  -0.000000000019496,   1.809743761335208 )   0.768832659965434
  WF centre and spread   10  (   0.000000000002942,   0.000000000001949,   2.358364132012454 )   1.142730879627047
  WF centre and spread   11  (   0.000000000001878,   0.000000000019316,   2.358364132011617 )   1.142730879622750
  WF centre and spread   12  (   1.999169474497834,  -0.000000000022127,   0.433482763371894 )   0.656578492239655
  WF centre and spread   13  (   1.999169474489472,  -0.000000000006439,  -0.124288328179320 )   0.991061765667015
  WF centre and spread   14  (   1.999169474479231,  -0.000000000000606,   0.148357808285249 )   1.265216851805597
  WF centre and spread   15  (   1.999169474487815,   0.000000000026491,   0.148792078474503 )   1.176831006486603
  Sum of centres and spreads (  13.994186321417722,  13.994186321421665,  16.835971407068570 )  14.021707713838254

     22    -0.145E-01     0.2438215228       14.0217077140       0.33  <-- CONV
        O_D=      0.0049666 O_OD=      2.2744252 O_TOT=     14.0217077 <-- SPRD
 Delta: O_D= -0.1384589E-02 O_OD= -0.1308577E-01 O_TOT= -0.1447036E-01 <-- DLTA
 ------------------------------------------------------------------------------
 Cycle:     23
  WF centre and spread    1  (   1.999169474488255,   1.999169474487829,   2.126994218119001 )   0.691884943905521
  WF centre and spread    2  (   1.999169474488463,   1.999169474488159,   2.128223559862793 )   0.691166236281584
  WF centre and spread    3  (   1.999169474487762,   1.999169474487904,   2.128223559862675 )   0.691166236279722
  WF centre and spread    4  (   0.000000000027376,   1.999169474494687,   0.441396238484454 )   0.659908729817917
  WF centre and spread    5  (   0.000000000004266,   1.999169474486629,  -0.133110160018577 )   0.980812895377215
  WF centre and spread    6  (  -0.000000000033259,   1.999169474488329,   0.148809899580018 )   1.176352283726639
  WF centre and spread    7  (  -0.000000000000172,   1.999169474484155,   0.148210731198038 )   1.266996989240136
  WF centre and spread    8  (  -0.000000000001107,   0.000000000004446,   2.720957481234425 )   0.723563482299524
  WF centre and spread    9  (  -0.000000000003031,  -0.000000000019692,   1.803325562794691 )   0.750650882767584
  WF centre and spread   10  (   0.000000000003035,   0.000000000001980,   2.359187099777699 )   1.141106989233204
  WF centre and spread   11  (   0.000000000001862,   0.000000000019690,   2.359187099776868 )   1.141106989229232
  WF centre and spread   12  (   1.999169474498749,  -0.000000000023192,   0.441396238455099 )   0.659908729803594
  WF centre and spread   13  (   1.999169474489636,  -0.000000000006908,  -0.133110159985244 )   0.980812895432195
  WF centre and spread   14  (   1.999169474478145,  -0.000000000000605,   0.148210731199171 )   1.266996989243679
  WF centre and spread   15  (   1.999169474487851,   0.000000000028038,   0.148809899577630 )   1.176352283729319
  Sum of centres and spreads (  13.994186321417830,  13.994186321421452,  16.836711999918748 )  13.998787556367063

     23    -0.229E-01     0.1767334468       13.9987875566       0.35  <-- CONV
        O_D=      0.0070439 O_OD=      2.2494278 O_TOT=     13.9987876 <-- SPRD
 Delta: O_D=  0.2077243E-02 O_OD= -0.2499740E-01 O_TOT= -0.2292016E-01 <-- DLTA
 ------------------------------------------------------------------------------
 Cycle:     24
  WF centre and spread    1  (   1.999169474488248,   1.999169474487840,   2.126957083839104 )   0.693829112541236
  WF centre and spread    2  (   1.999169474488466,   1.999169474488163,   2.128213127244788 )   0.692370731687335
  WF centre and spread    3  (   1.999169474487757,   1.999169474487903,   2.128213127244675 )   0.692370731685298
  WF centre and spread    4  (   0.000000000029668,   1.999169474495642,   0.456396192981070 )   0.669248816221564
  WF centre and spread    5  (   0.000000000005437,   1.999169474486601,  -0.149584120102550 )   0.960273496994551
  WF centre and spread    6  (  -0.000000000036748,   1.999169474488208,   0.148851747458251 )   1.175823656606386
  WF centre and spread    7  (  -0.000000000000149,   1.999169474483141,   0.147931378415791 )   1.269234078315443
  WF centre and spread    8  (  -0.000000000001253,   0.000000000003907,   2.732842524170140 )   0.741174177251292
  WF centre and spread    9  (  -0.000000000003060,  -0.000000000019933,   1.793517733782968 )   0.718706337918895
  WF centre and spread   10  (   0.000000000003297,   0.000000000002029,   2.360671578109058 )   1.138483304501062
  WF centre and spread   11  (   0.000000000001867,   0.000000000020417,   2.360671578108187 )   1.138483304497104
  WF centre and spread   12  (   1.999169474500625,  -0.000000000025308,   0.456396192956688 )   0.669248816204437
  WF centre and spread   13  (   1.999169474489977,  -0.000000000007948,  -0.149584120074228 )   0.960273497047342
  WF centre and spread   14  (   1.999169474475871,  -0.000000000000596,   0.147931378416834 )   1.269234078318693
  WF centre and spread   15  (   1.999169474487843,   0.000000000031232,   0.148851747455867 )   1.175823656608308
  Sum of centres and spreads (  13.994186321417848,  13.994186321421298,  16.838277150006647 )  13.964577796398956

     24    -0.342E-01     0.2347002015       13.9645777966       0.36  <-- CONV
        O_D=      0.0091013 O_OD=      2.2131607 O_TOT=     13.9645778 <-- SPRD
 Delta: O_D=  0.2057381E-02 O_OD= -0.3626714E-01 O_TOT= -0.3420976E-01 <-- DLTA
 ------------------------------------------------------------------------------
 Cycle:     25
  WF centre and spread    1  (   1.999169474488250,   1.999169474487861,   2.126875074623315 )   0.696917357654058
  WF centre and spread    2  (   1.999169474488483,   1.999169474488163,   2.128153558374976 )   0.694240794488016
  WF centre and spread    3  (   1.999169474487759,   1.999169474487891,   2.128153558374863 )   0.694240794485902
  WF centre and spread    4  (   0.000000000033866,   1.999169474497601,   0.483446301830875 )   0.693203511475050
  WF centre and spread    5  (   0.000000000008881,   1.999169474486651,  -0.178470409480325 )   0.909281382910167
  WF centre and spread    6  (  -0.000000000044353,   1.999169474488079,   0.148887781385208 )   1.175007948083338
  WF centre and spread    7  (  -0.000000000000261,   1.999169474481122,   0.147346102952319 )   1.269978802341078
  WF centre and spread    8  (  -0.000000000001743,   0.000000000002791,   2.746016303320612 )   0.787849574170098
  WF centre and spread    9  (  -0.000000000003082,  -0.000000000020063,   1.784422683183797 )   0.655775115681141
  WF centre and spread   10  (   0.000000000003713,   0.000000000001989,   2.362783023742830 )   1.138340236792775
  WF centre and spread   11  (   0.000000000002067,   0.000000000021804,   2.362783023741858 )   1.138340236786693
  WF centre and spread   12  (   1.999169474504448,  -0.000000000029429,   0.483446301816836 )   0.693203511455645
  WF centre and spread   13  (   1.999169474490975,  -0.000000000010756,  -0.178470409462541 )   0.909281382952297
  WF centre and spread   14  (   1.999169474470805,  -0.000000000000599,   0.147346102953553 )   1.269978802344761
  WF centre and spread   15  (   1.999169474487827,   0.000000000038265,   0.148887781383025 )   1.175007948088979
  Sum of centres and spreads (  13.994186321417635,  13.994186321421369,  16.841606778741202 )  13.900647399709996

     25    -0.639E-01     0.3014944333       13.9006473999       0.38  <-- CONV
        O_D=      0.0098297 O_OD=      2.1485018 O_TOT=     13.9006474 <-- SPRD
 Delta: O_D=  0.7284827E-03 O_OD= -0.6465888E-01 O_TOT= -0.6393040E-01 <-- DLTA
 ------------------------------------------------------------------------------
 Cycle:     26
  WF centre and spread    1  (   1.999169474488257,   1.999169474487842,   2.126813802464816 )   0.695319002458659
  WF centre and spread    2  (   1.999169474488476,   1.999169474488162,   2.128136183770192 )   0.694352728948195
  WF centre and spread    3  (   1.999169474487759,   1.999169474487904,   2.128136183770081 )   0.694352728946079
  WF centre and spread    4  (   0.000000000036322,   1.999169474498930,   0.496924018883948 )   0.714477078498693
  WF centre and spread    5  (   0.000000000012033,   1.999169474486911,  -0.191972015717374 )   0.868553360114022
  WF centre and spread    6  (  -0.000000000050076,   1.999169474488075,   0.148890377558511 )   1.174627527902572
  WF centre and spread    7  (  -0.000000000000149,   1.999169474479599,   0.147081563924351 )   1.268740070617733
  WF centre and spread    8  (  -0.000000000001887,   0.000000000001733,   2.744692467360999 )   0.824419923607548
  WF centre and spread    9  (  -0.000000000003033,  -0.000000000019789,   1.788241949182472 )   0.621834334488549
  WF centre and spread   10  (   0.000000000003929,   0.000000000002015,   2.363013233109075 )   1.137004838522509
  WF centre and spread   11  (   0.000000000001957,   0.000000000022664,   2.363013233108169 )   1.137004838517565
  WF centre and spread   12  (   1.999169474507019,  -0.000000000031825,   0.496924018876635 )   0.714477078476303
  WF centre and spread   13  (   1.999169474492198,  -0.000000000013490,  -0.191972015706450 )   0.868553360152869
  WF centre and spread   14  (   1.999169474466894,  -0.000000000000602,   0.147081563925433 )   1.268740070621355
  WF centre and spread   15  (   1.999169474487867,   0.000000000043443,   0.148890377556178 )   1.174627527906801
  Sum of centres and spreads (  13.994186321417565,  13.994186321421571,  16.843894942067031 )  13.857084469779466

     26    -0.436E-01     0.3698464173       13.8570844700       0.39  <-- CONV
        O_D=      0.0060194 O_OD=      2.1087492 O_TOT=     13.8570845 <-- SPRD
 Delta: O_D= -0.3810318E-02 O_OD= -0.3975261E-01 O_TOT= -0.4356293E-01 <-- DLTA
 ------------------------------------------------------------------------------
 Cycle:     27
  WF centre and spread    1  (   1.999169474488256,   1.999169474487831,   2.126878174236709 )   0.693401787208503
  WF centre and spread    2  (   1.999169474488467,   1.999169474488165,   2.128174284416874 )   0.693017893820924
  WF centre and spread    3  (   1.999169474487756,   1.999169474487906,   2.128174284416756 )   0.693017893818997
  WF centre and spread    4  (   0.000000000037551,   1.999169474499794,   0.501707075257837 )   0.727948129781438
  WF centre and spread    5  (   0.000000000014221,   1.999169474487019,  -0.195444584376306 )   0.842954544331784
  WF centre and spread    6  (  -0.000000000053506,   1.999169474488133,   0.148851370782611 )   1.174881159723377
  WF centre and spread    7  (  -0.000000000000131,   1.999169474478667,   0.147251593834179 )   1.267370294250004
  WF centre and spread    8  (  -0.000000000001954,   0.000000000001030,   2.740302853138308 )   0.843606950776890
  WF centre and spread    9  (  -0.000000000003056,  -0.000000000019489,   1.793271135834881 )   0.608513839661951
  WF centre and spread   10  (   0.000000000003936,   0.000000000002006,   2.361678227103863 )   1.138042381378987
  WF centre and spread   11  (   0.000000000001923,   0.000000000022964,   2.361678227102925 )   1.138042381375620
  WF centre and spread   12  (   1.999169474508550,  -0.000000000033081,   0.501707075253942 )   0.727948129759845
  WF centre and spread   13  (   1.999169474493189,  -0.000000000015284,  -0.195444584368853 )   0.842954544368389
  WF centre and spread   14  (   1.999169474464431,  -0.000000000000624,   0.147251593835259 )   1.267370294253583
  WF centre and spread   15  (   1.999169474487869,   0.000000000046502,   0.148851370780237 )   1.174881159726436
  Sum of centres and spreads (  13.994186321417503,  13.994186321421543,  16.844888097249218 )  13.833951384236741

     27    -0.231E-01     0.2595378711       13.8339513844       0.41  <-- CONV
        O_D=      0.0074236 O_OD=      2.0842119 O_TOT=     13.8339514 <-- SPRD
 Delta: O_D=  0.1404164E-02 O_OD= -0.2453725E-01 O_TOT= -0.2313309E-01 <-- DLTA
 ------------------------------------------------------------------------------
 Cycle:     28
  WF centre and spread    1  (   1.999169474488257,   1.999169474487835,   2.126928391263795 )   0.692416070759439
  WF centre and spread    2  (   1.999169474488464,   1.999169474488161,   2.128204486962377 )   0.692147949257970
  WF centre and spread    3  (   1.999169474487760,   1.999169474487905,   2.128204486962260 )   0.692147949256135
  WF centre and spread    4  (   0.000000000037903,   1.999169474500061,   0.501966155038797 )   0.729375780713812
  WF centre and spread    5  (   0.000000000014624,   1.999169474487054,  -0.194655089911057 )   0.838342425732976
  WF centre and spread    6  (  -0.000000000054243,   1.999169474488191,   0.148829581105063 )   1.175445045691769
  WF centre and spread    7  (  -0.000000000000146,   1.999169474478357,   0.147544388421664 )   1.266990872335359
  WF centre and spread    8  (  -0.000000000001958,   0.000000000000873,   2.740177335868562 )   0.839967981246287
  WF centre and spread    9  (  -0.000000000003062,  -0.000000000019429,   1.792588870102279 )   0.609288590312029
  WF centre and spread   10  (   0.000000000003933,   0.000000000001997,   2.360637418396439 )   1.138419137532584
  WF centre and spread   11  (   0.000000000001904,   0.000000000023018,   2.360637418395508 )   1.138419137529004
  WF centre and spread   12  (   1.999169474509078,  -0.000000000033439,   0.501966155035220 )   0.729375780692639
  WF centre and spread   13  (   1.999169474493427,  -0.000000000015623,  -0.194655089903842 )   0.838342425768303
  WF centre and spread   14  (   1.999169474463689,  -0.000000000000620,   0.147544388422752 )   1.266990872338808
  WF centre and spread   15  (   1.999169474487855,   0.000000000047151,   0.148829581102670 )   1.175445045694627
  Sum of centres and spreads (  13.994186321417486,  13.994186321421493,  16.844748477262488 )  13.823115064861753

     28    -0.108E-01     0.1645489216       13.8231150650       0.42  <-- CONV
        O_D=      0.0061829 O_OD=      2.0746163 O_TOT=     13.8231151 <-- SPRD
 Delta: O_D= -0.1240730E-02 O_OD= -0.9595589E-02 O_TOT= -0.1083632E-01 <-- DLTA
 ------------------------------------------------------------------------------
 Cycle:     29
  WF centre and spread    1  (   1.999169474488254,   1.999169474487839,   2.126972049992714 )   0.691165215615746
  WF centre and spread    2  (   1.999169474488461,   1.999169474488164,   2.128219852665402 )   0.691068314329769
  WF centre and spread    3  (   1.999169474487759,   1.999169474487904,   2.128219852665285 )   0.691068314328044
  WF centre and spread    4  (   0.000000000038577,   1.999169474500531,   0.502432727460590 )   0.732013010661777
  WF centre and spread    5  (   0.000000000015379,   1.999169474487077,  -0.193711731050055 )   0.832578738310465
  WF centre and spread    6  (  -0.000000000055655,   1.999169474488282,   0.148795040144359 )   1.176203629937572
[...]
  WF centre and spread    5  (   0.000000000344796,   1.999169475156385,  -0.196867286428096 )   0.791879806457678
  WF centre and spread    6  (  -0.000000000708062,   1.999169474487344,   0.148788710366148 )   1.176161071801680
  WF centre and spread    7  (   0.000000000003304,   1.999169472859460,   0.148061794999886 )   1.266034325124932
  WF centre and spread    8  (  -0.000000000009759,  -0.000000000049902,   2.744149382649588 )   0.788482768113171
  WF centre and spread    9  (  -0.000000000006741,  -0.000000000037896,   1.784513228705672 )   0.647198899984534
  WF centre and spread   10  (   0.000000000015616,   0.000000000001760,   2.358926927664181 )   1.140736960852296
  WF centre and spread   11  (   0.000000000002086,   0.000000000092593,   2.358926927663379 )   1.140736960848799
  WF centre and spread   12  (   1.999169476818756,  -0.000000000331917,   0.506445679253688 )   0.767317265206819
  WF centre and spread   13  (   1.999169476206233,  -0.000000000317777,  -0.196867286426246 )   0.791879806463319
  WF centre and spread   14  (   1.999169470370366,   0.000000000000717,   0.148061795001024 )   1.266034325128446
  WF centre and spread   15  (   1.999169474489162,   0.000000000649817,   0.148788710363779 )   1.176161071804497
  Sum of centres and spreads (  13.994186321349865,  13.994186321395853,  16.842789248898580 )  13.792890440364218

     93    -0.671E-08     0.0001071194       13.7928904406       1.40  <-- CONV
        O_D=      0.0056959 O_OD=      2.0448786 O_TOT=     13.7928904 <-- SPRD
 Delta: O_D= -0.1051841E-07 O_OD=  0.3805226E-08 O_TOT= -0.6713186E-08 <-- DLTA
 ------------------------------------------------------------------------------
 Cycle:     94
  WF centre and spread    1  (   1.999169474488349,   1.999169474487877,   2.126976683038316 )   0.691017453610991
  WF centre and spread    2  (   1.999169474488432,   1.999169474488212,   2.128219151294295 )   0.690966229453370
  WF centre and spread    3  (   1.999169474487879,   1.999169474487895,   2.128219151294172 )   0.690966229451444
  WF centre and spread    4  (   0.000000000362125,   1.999169475436048,   0.506445664786792 )   0.767317664526785
  WF centre and spread    5  (   0.000000000347516,   1.999169475167386,  -0.196867308355131 )   0.791878913034331
  WF centre and spread    6  (  -0.000000000713475,   1.999169474487336,   0.148788711785333 )   1.176161108144415
  WF centre and spread    7  (   0.000000000003360,   1.999169472833243,   0.148061713645619 )   1.266034499037167
  WF centre and spread    8  (  -0.000000000009769,  -0.000000000050150,   2.744149676366489 )   0.788482660247514
  WF centre and spread    9  (  -0.000000000006754,  -0.000000000038048,   1.784513174763158 )   0.647199179632264
  WF centre and spread   10  (   0.000000000015643,   0.000000000001759,   2.358926904963823 )   1.140737156823987
  WF centre and spread   11  (   0.000000000002088,   0.000000000092996,   2.358926904963018 )   1.140737156820506
  WF centre and spread   12  (   1.999169476856001,  -0.000000000334384,   0.506445664788893 )   0.767317664528055
  WF centre and spread   13  (   1.999169476234129,  -0.000000000320274,  -0.196867308353281 )   0.791878913039971
  WF centre and spread   14  (   1.999169470304079,   0.000000000000738,   0.148061713646757 )   1.266034499040683
  WF centre and spread   15  (   1.999169474489174,   0.000000000654799,   0.148788711782964 )   1.176161108147250
  Sum of centres and spreads (  13.994186321348774,  13.994186321395434,  16.842789210411215 )  13.792890435538737

     94    -0.483E-08     0.0001482265       13.7928904357       1.41  <-- CONV
        O_D=      0.0056959 O_OD=      2.0448786 O_TOT=     13.7928904 <-- SPRD
 Delta: O_D=  0.3467521E-08 O_OD= -0.8293001E-08 O_TOT= -0.4825480E-08 <-- DLTA
 ------------------------------------------------------------------------------
 Cycle:     95
  WF centre and spread    1  (   1.999169474488351,   1.999169474487878,   2.126976682644079 )   0.691017448590170
  WF centre and spread    2  (   1.999169474488431,   1.999169474488214,   2.128219151337218 )   0.690966231986957
  WF centre and spread    3  (   1.999169474487885,   1.999169474487895,   2.128219151337094 )   0.690966231985049
  WF centre and spread    4  (   0.000000000368273,   1.999169475470177,   0.506445638731827 )   0.767318648674748
  WF centre and spread    5  (   0.000000000353761,   1.999169475192825,  -0.196867350088642 )   0.791877025144595
  WF centre and spread    6  (  -0.000000000725907,   1.999169474487319,   0.148788711642028 )   1.176161163077996
  WF centre and spread    7  (   0.000000000003489,   1.999169472772624,   0.148061546858897 )   1.266034761416968
  WF centre and spread    8  (  -0.000000000009791,  -0.000000000050718,   2.744150289523237 )   0.788482592588458
  WF centre and spread    9  (  -0.000000000006785,  -0.000000000038397,   1.784513076418190 )   0.647199710900051
  WF centre and spread   10  (   0.000000000015702,   0.000000000001755,   2.358926891373864 )   1.140737510226295
  WF centre and spread   11  (   0.000000000002092,   0.000000000093918,   2.358926891373060 )   1.140737510222813
  WF centre and spread   12  (   1.999169476942113,  -0.000000000340052,   0.506445638733929 )   0.767318648676013
  WF centre and spread   13  (   1.999169476298630,  -0.000000000326009,  -0.196867350086793 )   0.791877025150239
  WF centre and spread   14  (   1.999169470150817,   0.000000000000789,   0.148061546860035 )   1.266034761420485
  WF centre and spread   15  (   1.999169474489202,   0.000000000666243,   0.148788711639659 )   1.176161163080816
  Sum of centres and spreads (  13.994186321346268,  13.994186321394462,  16.842789228297683 )  13.792890433141665

     95    -0.240E-08     0.0000780752       13.7928904333       1.42  <-- CONV
        O_D=      0.0056959 O_OD=      2.0448786 O_TOT=     13.7928904 <-- SPRD
 Delta: O_D=  0.1760344E-07 O_OD= -0.2000053E-07 O_TOT= -0.2397094E-08 <-- DLTA
 ------------------------------------------------------------------------------
 Cycle:     96
  WF centre and spread    1  (   1.999169474488359,   1.999169474487880,   2.126976682772310 )   0.691017441227171
  WF centre and spread    2  (   1.999169474488428,   1.999169474488216,   2.128219151437535 )   0.690966236203060
  WF centre and spread    3  (   1.999169474487893,   1.999169474487894,   2.128219151437410 )   0.690966236201151
  WF centre and spread    4  (   0.000000000378529,   1.999169475527746,   0.506445609067232 )   0.767320436070498
  WF centre and spread    5  (   0.000000000364180,   1.999169475235741,  -0.196867394049334 )   0.791874271245027
  WF centre and spread    6  (  -0.000000000746644,   1.999169474487290,   0.148788710127533 )   1.176161200763312
  WF centre and spread    7  (   0.000000000003708,   1.999169472670369,   0.148061322101634 )   1.266034881358990
  WF centre and spread    8  (  -0.000000000009824,  -0.000000000051661,   2.744151118151842 )   0.788482705074654
  WF centre and spread    9  (  -0.000000000006834,  -0.000000000038975,   1.784512958358220 )   0.647200376964211
  WF centre and spread   10  (   0.000000000015797,   0.000000000001749,   2.358926901626618 )   1.140737928383984
  WF centre and spread   11  (   0.000000000002098,   0.000000000095450,   2.358926901625813 )   1.140737928380484
  WF centre and spread   12  (   1.999169477087370,  -0.000000000349506,   0.506445609069333 )   0.767320436071772
  WF centre and spread   13  (   1.999169476407444,  -0.000000000335576,  -0.196867394047484 )   0.791874271250670
  WF centre and spread   14  (   1.999169469892281,   0.000000000000874,   0.148061322102771 )   1.266034881362502
  WF centre and spread   15  (   1.999169474489248,   0.000000000685331,   0.148788710125164 )   1.176161200766130
  Sum of centres and spreads (  13.994186321342033,  13.994186321392824,  16.842789359906593 )  13.792890431323642

     96    -0.182E-08     0.0000635698       13.7928904315       1.44  <-- CONV
        O_D=      0.0056960 O_OD=      2.0448786 O_TOT=     13.7928904 <-- SPRD
 Delta: O_D=  0.3233012E-07 O_OD= -0.3414812E-07 O_TOT= -0.1818002E-08 <-- DLTA
 ------------------------------------------------------------------------------
 Cycle:     97
  WF centre and spread    1  (   1.999169474488366,   1.999169474487884,   2.126976682871339 )   0.691017435191871
  WF centre and spread    2  (   1.999169474488425,   1.999169474488220,   2.128219151677009 )   0.690966239998804
  WF centre and spread    3  (   1.999169474487902,   1.999169474487894,   2.128219151676887 )   0.690966239996866
  WF centre and spread    4  (   0.000000000392343,   1.999169475606574,   0.506445598102917 )   0.767323002239134
  WF centre and spread    5  (   0.000000000378212,   1.999169475294518,  -0.196867415197263 )   0.791871142961994
  WF centre and spread    6  (  -0.000000000774573,   1.999169474487252,   0.148788709526575 )   1.176161199820711
  WF centre and spread    7  (   0.000000000004008,   1.999169472530341,   0.148061113681270 )   1.266034670186780
  WF centre and spread    8  (  -0.000000000009863,  -0.000000000052919,   2.744151859347162 )   0.788482899532005
  WF centre and spread    9  (  -0.000000000006897,  -0.000000000039750,   1.784512859749718 )   0.647200958082760
  WF centre and spread   10  (   0.000000000015917,   0.000000000001741,   2.358926903442353 )   1.140738313339551
  WF centre and spread   11  (   0.000000000002106,   0.000000000097497,   2.358926903441548 )   1.140738313336051
  WF centre and spread   12  (   1.999169477286278,  -0.000000000362238,   0.506445598105018 )   0.767323002240413
  WF centre and spread   13  (   1.999169476556458,  -0.000000000348461,  -0.196867415195413 )   0.791871142967645
  WF centre and spread   14  (   1.999169469538239,   0.000000000000990,   0.148061113682408 )   1.266034670190304
  WF centre and spread   15  (   1.999169474489310,   0.000000000711037,   0.148788709524206 )   1.176161199823527
  Sum of centres and spreads (  13.994186321336233,  13.994186321390581,  16.842789524435730 )  13.792890429908411

     97    -0.142E-08     0.0000556281       13.7928904301       1.46  <-- CONV
        O_D=      0.0056960 O_OD=      2.0448785 O_TOT=     13.7928904 <-- SPRD
 Delta: O_D=  0.3262704E-07 O_OD= -0.3404216E-07 O_TOT= -0.1415113E-08 <-- DLTA
 ------------------------------------------------------------------------------
 Cycle:     98
  WF centre and spread    1  (   1.999169474488378,   1.999169474487888,   2.126976682912286 )   0.691017431538803
  WF centre and spread    2  (   1.999169474488422,   1.999169474488227,   2.128219151628791 )   0.690966243008051
  WF centre and spread    3  (   1.999169474487917,   1.999169474487892,   2.128219151628668 )   0.690966243006120
  WF centre and spread    4  (   0.000000000411170,   1.999169475716359,   0.506445612732776 )   0.767326521620646
  WF centre and spread    5  (   0.000000000397335,   1.999169475376399,  -0.196867400627086 )   0.791867506068961
  WF centre and spread    6  (  -0.000000000812639,   1.999169474487200,   0.148788709156771 )   1.176161175411523
  WF centre and spread    7  (   0.000000000004425,   1.999169472335298,   0.148060965198980 )   1.266034231241575
  WF centre and spread    8  (  -0.000000000009904,  -0.000000000054614,   2.744152347054619 )   0.788483026418215
  WF centre and spread    9  (  -0.000000000006978,  -0.000000000040797,   1.784512799310557 )   0.647201334924348
  WF centre and spread   10  (   0.000000000016064,   0.000000000001730,   2.358926871213913 )   1.140738640546155
  WF centre and spread   11  (   0.000000000002117,   0.000000000100260,   2.358926871213110 )   1.140738640542650
  WF centre and spread   12  (   1.999169477563317,  -0.000000000379589,   0.506445612734877 )   0.767326521621942
  WF centre and spread   13  (   1.999169476764034,  -0.000000000366020,  -0.196867400625236 )   0.791867506074611
  WF centre and spread   14  (   1.999169469045105,   0.000000000001153,   0.148060965200117 )   1.266034231245096
  WF centre and spread   15  (   1.999169474489394,   0.000000000746072,   0.148788709154402 )   1.176161175414315
  Sum of centres and spreads (  13.994186321328160,  13.994186321387458,  16.842789647887546 )  13.792890428683037

     98    -0.123E-08     0.0000494631       13.7928904289       1.47  <-- CONV
        O_D=      0.0056960 O_OD=      2.0448785 O_TOT=     13.7928904 <-- SPRD
 Delta: O_D=  0.2082091E-07 O_OD= -0.2204622E-07 O_TOT= -0.1225310E-08 <-- DLTA
 ------------------------------------------------------------------------------
 Cycle:     99
  WF centre and spread    1  (   1.999169474488389,   1.999169474487893,   2.126976682676887 )   0.691017431263237
  WF centre and spread    2  (   1.999169474488418,   1.999169474488231,   2.128219151416898 )   0.690966244284651
  WF centre and spread    3  (   1.999169474487931,   1.999169474487891,   2.128219151416774 )   0.690966244282729
  WF centre and spread    4  (   0.000000000429361,   1.999169475825100,   0.506445637385256 )   0.767329745248262
  WF centre and spread    5  (   0.000000000415811,   1.999169475457530,  -0.196867369764614 )   0.791864339901042
  WF centre and spread    6  (  -0.000000000849416,   1.999169474487150,   0.148788708834217 )   1.176161158079283
  WF centre and spread    7  (   0.000000000004838,   1.999169472142081,   0.148060926367760 )   1.266034018448357
  WF centre and spread    8  (  -0.000000000009932,  -0.000000000056231,   2.744152452731242 )   0.788483067123130
  WF centre and spread    9  (  -0.000000000007050,  -0.000000000041798,   1.784512792119334 )   0.647201380055221
  WF centre and spread   10  (   0.000000000016188,   0.000000000001719,   2.358926839911329 )   1.140738768728254
  WF centre and spread   11  (   0.000000000002128,   0.000000000102897,   2.358926839910524 )   1.140738768724733
  WF centre and spread   12  (   1.999169477837744,  -0.000000000396351,   0.506445637387357 )   0.767329745249572
  WF centre and spread   13  (   1.999169476969680,  -0.000000000382984,  -0.196867369762765 )   0.791864339906672
  WF centre and spread   14  (   1.999169468556589,   0.000000000001314,   0.148060926368898 )   1.266034018451880
  WF centre and spread   15  (   1.999169474489476,   0.000000000779917,   0.148788708831848 )   1.176161158082079
  Sum of centres and spreads (  13.994186321320157,  13.994186321384358,  16.842789715830950 )  13.792890427829093

     99    -0.854E-09     0.0000478019       13.7928904280       1.49  <-- CONV
        O_D=      0.0056960 O_OD=      2.0448785 O_TOT=     13.7928904 <-- SPRD
 Delta: O_D=  0.5692652E-08 O_OD= -0.6546575E-08 O_TOT= -0.8539232E-09 <-- DLTA
 ------------------------------------------------------------------------------
 Cycle:    100
  WF centre and spread    1  (   1.999169474488393,   1.999169474487895,   2.126976682679947 )   0.691017432443669
  WF centre and spread    2  (   1.999169474488417,   1.999169474488234,   2.128219151528359 )   0.690966242944750
  WF centre and spread    3  (   1.999169474487935,   1.999169474487891,   2.128219151528234 )   0.690966242942814
  WF centre and spread    4  (   0.000000000434011,   1.999169475855845,   0.506445648435510 )   0.767330321382519
  WF centre and spread    5  (   0.000000000420532,   1.999169475480493,  -0.196867360609959 )   0.791863786193952
  WF centre and spread    6  (  -0.000000000858815,   1.999169474487137,   0.148788708806040 )   1.176161165993920
  WF centre and spread    7  (   0.000000000004955,   1.999169472087427,   0.148060988967539 )   1.266034229238564
  WF centre and spread    8  (  -0.000000000009925,  -0.000000000056621,   2.744152240862983 )   0.788483038985177
  WF centre and spread    9  (  -0.000000000007062,  -0.000000000042043,   1.784512822428028 )   0.647201177508076
  WF centre and spread   10  (   0.000000000016201,   0.000000000001717,   2.358926845645059 )   1.140738643322914
  WF centre and spread   11  (   0.000000000002131,   0.000000000103538,   2.358926845644256 )   1.140738643319374
  WF centre and spread   12  (   1.999169477915357,  -0.000000000400633,   0.506445648437611 )   0.767330321383822
  WF centre and spread   13  (   1.999169477027863,  -0.000000000387318,  -0.196867360608109 )   0.791863786199572
  WF centre and spread   14  (   1.999169468418404,   0.000000000001359,   0.148060988968677 )   1.266034229242100
  WF centre and spread   15  (   1.999169474489498,   0.000000000788564,   0.148788708803671 )   1.176161165996718
  Sum of centres and spreads (  13.994186321317894,  13.994186321383484,  16.842789711517849 )  13.792890427097944

    100    -0.731E-09     0.0000473672       13.7928904273       1.50  <-- CONV
        O_D=      0.0056960 O_OD=      2.0448785 O_TOT=     13.7928904 <-- SPRD
 Delta: O_D= -0.5788460E-08 O_OD=  0.5057344E-08 O_TOT= -0.7311183E-09 <-- DLTA
 ------------------------------------------------------------------------------
 Final State
  WF centre and spread    1  (   1.999169474488393,   1.999169474487895,   2.126976682679947 )   0.691017432443669
  WF centre and spread    2  (   1.999169474488417,   1.999169474488234,   2.128219151528359 )   0.690966242944750
  WF centre and spread    3  (   1.999169474487935,   1.999169474487891,   2.128219151528234 )   0.690966242942814
  WF centre and spread    4  (   0.000000000434011,   1.999169475855845,   0.506445648435510 )   0.767330321382519
  WF centre and spread    5  (   0.000000000420532,   1.999169475480493,  -0.196867360609959 )   0.791863786193952
  WF centre and spread    6  (  -0.000000000858815,   1.999169474487137,   0.148788708806040 )   1.176161165993920
  WF centre and spread    7  (   0.000000000004955,   1.999169472087427,   0.148060988967539 )   1.266034229238564
  WF centre and spread    8  (  -0.000000000009925,  -0.000000000056621,   2.744152240862983 )   0.788483038985177
  WF centre and spread    9  (  -0.000000000007062,  -0.000000000042043,   1.784512822428028 )   0.647201177508076
  WF centre and spread   10  (   0.000000000016201,   0.000000000001717,   2.358926845645059 )   1.140738643322914
  WF centre and spread   11  (   0.000000000002131,   0.000000000103538,   2.358926845644256 )   1.140738643319374
  WF centre and spread   12  (   1.999169477915357,  -0.000000000400633,   0.506445648437611 )   0.767330321383822
  WF centre and spread   13  (   1.999169477027863,  -0.000000000387318,  -0.196867360608109 )   0.791863786199572
  WF centre and spread   14  (   1.999169468418404,   0.000000000001359,   0.148060988968677 )   1.266034229242100
  WF centre and spread   15  (   1.999169474489498,   0.000000000788564,   0.148788708803671 )   1.176161165996718
  Sum of centres and spreads (  13.994186321317894,  13.994186321383484,  16.842789711517849 )  13.792890427097944

         Spreads (Ang^2)       Omega I      =    11.742315886
        ================       Omega D      =     0.005696019
                               Omega OD     =     2.044878523
    Final Spread (Ang^2)       Omega Total  =    13.792890427
 ------------------------------------------------------------------------------

 Writing checkpoint file knbo3.chk... done


 *===========================================================================*
 |                             TIMING INFORMATION                            |
 *===========================================================================*
 |    Tag                                                Ncalls      Time (s)|
 |---------------------------------------------------------------------------|
 |kmesh: get                                        :         1         0.172|
 |overlap: read                                     :         1         0.062|
 |wann: main                                        :         1         1.516|
 |plot: main                                        :         1         0.000|
 *---------------------------------------------------------------------------*
