 
             +---------------------------------------------------+
             |                                                   |
             |                   WANNIER90                       |
             |                                                   |
             +---------------------------------------------------+
             |                                                   |
             |        Welcome to the Maximally-Localized         |
             |        Generalized Wannier Functions code         |
             |            http://www.wannier.org                 |
             |                                                   |
             |                                                   |
             |  Wannier90 Developer Group:                       |
             |    Giovanni Pizzi    (Paul Scherrer Institute)    |
             |    Valerio Vitale    (University of Trieste)      |
             |    David Vanderbilt  (Rutgers University)         |
             |    Nicola Marzari    (EPFL)                       |
             |    Ivo Souza         (Universidad del Pais Vasco) |
             |    Arash A. Mostofi  (Imperial College London)    |
             |    Jonathan R. Yates (University of Oxford)       |
             |                                                   |
             |  For the full list of Wannier90 3.x authors,      |
             |  please check the code documentation and the      |
             |  README on the GitHub page of the code            |
             |                                                   |
             |                                                   |
             |  Please cite                                      |
             |                                                   |
             |  [ref] "Wannier90 as a community code:            |
             |        new features and applications",            |
             |        G. Pizzi et al., J. Phys. Cond. Matt. 32,  |
             |        165902 (2020).                             |
             |        http://doi.org/10.1088/1361-648X/ab51ff    |
             |                                                   |
             |  in any publications arising from the use of      |
             |  this code. For the method please cite            |
             |                                                   |
             |  [ref] "Maximally Localized Generalised Wannier   |
             |         Functions for Composite Energy Bands"     |
             |         N. Marzari and D. Vanderbilt              |
             |         Phys. Rev. B 56 12847 (1997)              |
             |                                                   |
             |  [ref] "Maximally Localized Wannier Functions     |
             |         for Entangled Energy Bands"               |
             |         I. Souza, N. Marzari and D. Vanderbilt    |
             |         Phys. Rev. B 65 035109 (2001)             |
             |                                                   |
             |                                                   |
             | Copyright (c) 1996-2020                           |
             |        The Wannier90 Developer Group and          |
             |        individual contributors                    |
             |                                                   |
             |      Release: 3.1.0        5th March    2020      |
             |                                                   |
             | This program is free software; you can            |
             | redistribute it and/or modify it under the terms  |
             | of the GNU General Public License as published by |
             | the Free Software Foundation; either version 2 of |
             | the License, or (at your option) any later version|
             |                                                   |
             | This program is distributed in the hope that it   |
             | will be useful, but WITHOUT ANY WARRANTY; without |
             | even the implied warranty of MERCHANTABILITY or   |
             | FITNESS FOR A PARTICULAR PURPOSE. See the GNU     |
             | General Public License for more details.          |
             |                                                   |
             | You should have received a copy of the GNU General|
             | Public License along with this program; if not,   |
             | write to the Free Software Foundation, Inc.,      |
             | 675 Mass Ave, Cambridge, MA 02139, USA.           |
             |                                                   |
             +---------------------------------------------------+
             |    Execution started on 13Apr2024 at 15:26:26     |
             +---------------------------------------------------+
 
 ******************************************************************************
 * -> Using CODATA 2006 constant values                                       *
 *    (http://physics.nist.gov/cuu/Constants/index.html)                      *
 * -> Using Bohr value from CODATA                                            *
 ******************************************************************************
 

 Running in serial (with parallel executable)
 
                                    ------
                                    SYSTEM
                                    ------
 
                              Lattice Vectors (Ang)
                    a_1    15.875316   0.000000   0.000000
                    a_2     0.000000  15.875316   0.000000
                    a_3     0.000000   0.000000  15.875316
 
                   Unit Cell Volume:    4000.98716  (Ang^3)
 
                        Reciprocal-Space Vectors (Ang^-1)
                    b_1     0.395783   0.000000   0.000000
                    b_2     0.000000   0.395783   0.000000
                    b_3     0.000000   0.000000   0.395783
  
 *----------------------------------------------------------------------------*
 |   Site       Fractional Coordinate          Cartesian Coordinate (Ang)     |
 +----------------------------------------------------------------------------+
 | c    1   0.52095   0.50000   0.50000   |    8.27021   7.93766   7.93766    |
 | c    2   0.47698   0.57616   0.50000   |    7.57221   9.14666   7.93766    |
 | c    3   0.38905   0.57616   0.50000   |    6.17621   9.14666   7.93766    |
 | c    4   0.34508   0.50000   0.50000   |    5.47821   7.93766   7.93766    |
 | c    5   0.38905   0.42384   0.50000   |    6.17621   6.72866   7.93766    |
 | c    6   0.47698   0.42384   0.50000   |    7.57221   6.72866   7.93766    |
 | h    1   0.58917   0.50000   0.50000   |    9.35321   7.93766   7.93766    |
 | h    2   0.51112   0.63524   0.50000   |    8.11421  10.08466   7.93766    |
 | h    3   0.35490   0.63524   0.50000   |    5.63421  10.08466   7.93766    |
 | h    4   0.27686   0.50000   0.50000   |    4.39521   7.93766   7.93766    |
 | h    5   0.35490   0.36476   0.50000   |    5.63421   5.79066   7.93766    |
 | h    6   0.51112   0.36476   0.50000   |    8.11421   5.79066   7.93766    |
 *----------------------------------------------------------------------------*
                                -----------
                                PROJECTIONS
                                -----------
  
 +----------------------------------------------------------------------------+
 |     Frac. Coord.   l mr  r        z-axis               x-axis          Z/a |
 +----------------------------------------------------------------------------+
 |  0.18  0.20  0.10  0  1  1  0.000  0.000  1.000  1.000  0.000  0.000   1.0 |
 |  0.45  0.24  0.32  0  1  1  0.000  0.000  1.000  1.000  0.000  0.000   1.0 |
 |  0.56  0.95  0.30  0  1  1  0.000  0.000  1.000  1.000  0.000  0.000   1.0 |
 |  0.10  0.47  0.45  0  1  1  0.000  0.000  1.000  1.000  0.000  0.000   1.0 |
 |  0.16  0.73  0.30  0  1  1  0.000  0.000  1.000  1.000  0.000  0.000   1.0 |
 |  0.02  0.36  0.43  0  1  1  0.000  0.000  1.000  1.000  0.000  0.000   1.0 |
 |  0.91  0.71  0.30  0  1  1  0.000  0.000  1.000  1.000  0.000  0.000   1.0 |
 |  0.87  0.70  0.55  0  1  1  0.000  0.000  1.000  1.000  0.000  0.000   1.0 |
 |  0.61  0.45  0.91  0  1  1  0.000  0.000  1.000  1.000  0.000  0.000   1.0 |
 |  0.59  0.74  0.25  0  1  1  0.000  0.000  1.000  1.000  0.000  0.000   1.0 |
 |  0.86  0.35  0.22  0  1  1  0.000  0.000  1.000  1.000  0.000  0.000   1.0 |
 |  0.62  0.48  0.23  0  1  1  0.000  0.000  1.000  1.000  0.000  0.000   1.0 |
 |  0.79  0.53  0.61  0  1  1  0.000  0.000  1.000  1.000  0.000  0.000   1.0 |
 |  0.59  0.29  0.67  0  1  1  0.000  0.000  1.000  1.000  0.000  0.000   1.0 |
 |  0.91  0.60  0.84  0  1  1  0.000  0.000  1.000  1.000  0.000  0.000   1.0 |
 |  0.03  0.94  0.17  0  1  1  0.000  0.000  1.000  1.000  0.000  0.000   1.0 |
 |  0.12  0.22  0.57  0  1  1  0.000  0.000  1.000  1.000  0.000  0.000   1.0 |
 |  0.98  0.84  0.31  0  1  1  0.000  0.000  1.000  1.000  0.000  0.000   1.0 |
 +----------------------------------------------------------------------------+
  
                                ------------
                                K-POINT GRID
                                ------------
  
             Grid size =  1 x  1 x  1      Total points =    1
  
 *----------------------------------------------------------------------------*
 | k-point      Fractional Coordinate        Cartesian Coordinate (Ang^-1)    |
 +----------------------------------------------------------------------------+
 |     1    0.00000   0.00000   0.00000   |    0.00000   0.00000   0.00000    |
 *----------------------------------------------------------------------------*
  
  
 *---------------------------------- MAIN ------------------------------------*
 |  Number of Wannier Functions               :                18             |
 |  Number of Objective Wannier Functions     :                18             |
 |  Number of input Bloch states              :                90             |
 |  Output verbosity (1=low, 5=high)          :                 2             |
 |  Timing Level (1=low, 5=high)              :                 1             |
 |  Optimisation (0=memory, 3=speed)          :                 3             |
 |  Length Unit                               :               Ang             |
 |  Post-processing setup (write *.nnkp)      :                 F             |
 |  Using Gamma-only branch of algorithms     :                 T             |
 *----------------------------------------------------------------------------*
 *------------------------------- WANNIERISE ---------------------------------*
 |  Total number of iterations                :               100             |
 |  Number of CG steps before reset           :                 5             |
 |  Trial step length for line search         :             2.000             |
 |  Convergence tolerence                     :         0.100E-09             |
 |  Convergence window                        :                 5             |
 |  Iterations between writing output         :                 1             |
 |  Iterations between backing up to disk     :               100             |
 |  Write r^2_nm to file                      :                 F             |
 |  Write xyz WF centres to file              :                 F             |
 |  Write on-site energies <0n|H|0n> to file  :                 F             |
 |  Use guiding centre to control phases      :                 T             |
 |  Use phases for initial projections        :                 F             |
 |  Iterations before starting guiding centres:                 0             |
 |  Iterations between using guiding centres  :                 1             |
 *----------------------------------------------------------------------------*
 *------------------------------- DISENTANGLE --------------------------------*
 |  Using band disentanglement                :                 T             |
 |  Total number of iterations                :              1000             |
 |  Mixing ratio                              :             0.500             |
 |  Convergence tolerence                     :         1.000E-10             |
 |  Convergence window                        :                 3             |
 *----------------------------------------------------------------------------*

 *---------------------------------- K-MESH ----------------------------------*
 +----------------------------------------------------------------------------+
 |                    Distance to Nearest-Neighbour Shells                    |
 |                    ------------------------------------                    |
 |          Shell             Distance (Ang^-1)          Multiplicity         |
 |          -----             -----------------          ------------         |
 |             1                   0.395783                      6            |
 |             2                   0.559722                     12            |
 |             3                   0.685517                      8            |
 |             4                   0.791567                      6            |
 |             5                   0.884998                     24            |
 |             6                   0.969467                     24            |
 |             7                   1.119444                     12            |
 |             8                   1.187350                     30            |
 |             9                   1.251577                     24            |
 |            10                   1.312665                     24            |
 |            11                   1.371034                      8            |
 |            12                   1.427017                     24            |
 +----------------------------------------------------------------------------+
 | The b-vectors are chosen automatically                                     |
 | Shell:  1 w_b    3.1919424      (Ang^2)                                    |
 | The following shells are used:   1                                         |
 +----------------------------------------------------------------------------+
 |                        Shell   # Nearest-Neighbours                        |
 |                        -----   --------------------                        |
 |                          1               6                                 |
 +----------------------------------------------------------------------------+
 | Completeness relation is fully satisfied [Eq. (B1), PRB 56, 12847 (1997)]  |
 +----------------------------------------------------------------------------+
 |                  b_k Vectors (Ang^-1) and Weights (Ang^2)                  |
 |                  ----------------------------------------                  |
 |            No.         b_k(x)      b_k(y)      b_k(z)        w_b           |
 |            ---        --------------------------------     --------        |
 |             1         0.395783    0.000000    0.000000     3.191942        |
 |             2         0.000000    0.395783    0.000000     3.191942        |
 |             3         0.000000    0.000000    0.395783     3.191942        |
 |             4         0.000000    0.000000   -0.395783     3.191942        |
 |             5         0.000000   -0.395783    0.000000     3.191942        |
 |             6        -0.395783    0.000000    0.000000     3.191942        |
 +----------------------------------------------------------------------------+
 |                           b_k Directions (Ang^-1)                          |
 |                           -----------------------                          |
 |            No.           x           y           z                         |
 |            ---        --------------------------------                     |
 |             1         0.395783    0.000000    0.000000                     |
 |             2         0.000000    0.395783    0.000000                     |
 |             3         0.000000    0.000000    0.395783                     |
 +----------------------------------------------------------------------------+
  
 +----------------------------------------------------------------------------+
 |        Gamma-point: number of the b-vectors is reduced by half             |
 +----------------------------------------------------------------------------+
 |                  b_k Vectors (Ang^-1) and Weights (Ang^2)                  |
 |                  ----------------------------------------                  |
 |            No.         b_k(x)      b_k(y)      b_k(z)        w_b           |
 |            ---        --------------------------------     --------        |
 |             1         0.395783    0.000000    0.000000     6.383885        |
 |             2         0.000000    0.395783    0.000000     6.383885        |
 |             3         0.000000    0.000000    0.395783     6.383885        |
 +----------------------------------------------------------------------------+
  
 Starting a new Wannier90 calculation ...


 Reading overlaps from benzene.mmn    :  Created on 14Sep2016 at 16:50: 9

 Reading projections from benzene.amn :  Created on 14Sep2016 at 16:49:46

 *------------------------------- DISENTANGLE --------------------------------*
 +----------------------------------------------------------------------------+
 |                              Energy  Windows                               |
 |                              ---------------                               |
 |                   Outer:  -21.02404  to    4.00000  (eV)                   |
 |                   Inner:  -21.02404  to   -6.00000  (eV)                   |
 +----------------------------------------------------------------------------+
 |                        K-points with Frozen States                         |
 |                        ---------------------------                         |
 |     1                                                                      |
 +----------------------------------------------------------------------------+
   Number of target bands to extract:   18
 +----------------------------------------------------------------------------+
 |                                  Windows                                   |
 |                                  -------                                   |
 |               K-point      Ndimwin     Ndimfroz    Nfirstwin               |
 |               ----------------------------------------------               |
 |                   1           90           15           1                  |
 +----------------------------------------------------------------------------+

                   Unitarised projection of Wannier functions                  
                   ------------------------------------------                  
   A_mn = <psi_m|g_n> --> S = A.A^+ --> U = S^-1/2.A
   In dis_project... done
   Using an inner window (linner = T)
   In dis_proj_froz... done

                   Extraction of optimally-connected subspace                  
                   ------------------------------------------                  
 +---------------------------------------------------------------------+<-- DIS
 |  Iter     Omega_I(i-1)      Omega_I(i)      Delta (frac.)    Time   |<-- DIS
 +---------------------------------------------------------------------+<-- DIS
       1      37.91168518      37.46220191       1.200E-02      0.00    <-- DIS
       2      36.19904102      30.81429601       1.747E-01      0.00    <-- DIS
       3      33.41239116      30.24377889       1.048E-01      0.00    <-- DIS
       4      31.79414198      30.00649947       5.958E-02      0.00    <-- DIS
       5      30.88167993      29.87267776       3.378E-02      0.00    <-- DIS
       6      30.36557907      29.78762029       1.940E-02      0.00    <-- DIS
       7      30.06862915      29.72798341       1.146E-02      0.00    <-- DIS
       8      29.89231660      29.68234787       7.074E-03      0.01    <-- DIS
       9      29.78247430      29.64479462       4.644E-03      0.01    <-- DIS
      10      29.70945490      29.61214692       3.286E-03      0.01    <-- DIS
      11      29.65705167      29.58265777       2.515E-03      0.01    <-- DIS
      12      29.61639730      29.55534636       2.066E-03      0.01    <-- DIS
      13      29.58262730      29.52964989       1.794E-03      0.01    <-- DIS
      14      29.55306084      29.50523642       1.621E-03      0.01    <-- DIS
      15      29.52620975      29.48190289       1.503E-03      0.01    <-- DIS
      16      29.50123866      29.45951891       1.416E-03      0.01    <-- DIS
      17      29.47767049      29.43799566       1.348E-03      0.01    <-- DIS
      18      29.45522567      29.41726875       1.290E-03      0.01    <-- DIS
      19      29.43373426      29.39728862       1.240E-03      0.01    <-- DIS
      20      29.41308778      29.37801531       1.194E-03      0.01    <-- DIS
      21      29.39321288      29.35941552       1.151E-03      0.02    <-- DIS
      22      29.37405690      29.34146093       1.111E-03      0.02    <-- DIS
      23      29.35557984      29.32412721       1.073E-03      0.02    <-- DIS
      24      29.33774996      29.30739337       1.036E-03      0.02    <-- DIS
      25      29.32054127      29.29124127       1.000E-03      0.02    <-- DIS
      26      29.30393201      29.27565520       9.659E-04      0.02    <-- DIS
      27      29.28790372      29.26062151       9.324E-04      0.02    <-- DIS
      28      29.27244053      29.24612821       8.997E-04      0.02    <-- DIS
      29      29.25752874      29.23216468       8.677E-04      0.02    <-- DIS
      30      29.24315627      29.21872125       8.363E-04      0.02    <-- DIS
      31      29.22931237      29.20578896       8.054E-04      0.02    <-- DIS
      32      29.21598724      29.19335923       7.751E-04      0.02    <-- DIS
      33      29.20317171      29.18142362       7.453E-04      0.03    <-- DIS
      34      29.19085697      29.16997364       7.159E-04      0.03    <-- DIS
      35      29.17903436      29.15900057       6.871E-04      0.03    <-- DIS
      36      29.16769513      29.14849531       6.587E-04      0.03    <-- DIS
      37      29.15683032      29.13844831       6.309E-04      0.03    <-- DIS
      38      29.14643060      29.12884950       6.036E-04      0.03    <-- DIS
      39      29.13648620      29.11968827       5.769E-04      0.03    <-- DIS
      40      29.12698688      29.11095348       5.508E-04      0.03    <-- DIS
      41      29.11792188      29.10263348       5.253E-04      0.03    <-- DIS
      42      29.10927992      29.09471612       5.006E-04      0.03    <-- DIS
      43      29.10104925      29.08718888       4.765E-04      0.03    <-- DIS
      44      29.09321769      29.08003887       4.532E-04      0.03    <-- DIS
      45      29.08577265      29.07325292       4.306E-04      0.03    <-- DIS
      46      29.07870126      29.06681770       4.088E-04      0.04    <-- DIS
      47      29.07199036      29.06071972       3.878E-04      0.04    <-- DIS
      48      29.06562665      29.05494547       3.676E-04      0.04    <-- DIS
      49      29.05959672      29.04948148       3.482E-04      0.04    <-- DIS
      50      29.05388713      29.04431435       3.296E-04      0.04    <-- DIS
      51      29.04848448      29.03943085       3.118E-04      0.04    <-- DIS
      52      29.04337549      29.03481796       2.947E-04      0.04    <-- DIS
      53      29.03854704      29.03046291       2.785E-04      0.04    <-- DIS
      54      29.03398622      29.02635325       2.630E-04      0.04    <-- DIS
      55      29.02968037      29.02247684       2.482E-04      0.04    <-- DIS
      56      29.02561717      29.01882191       2.342E-04      0.04    <-- DIS
      57      29.02178460      29.01537709       2.208E-04      0.04    <-- DIS
      58      29.01817101      29.01213138       2.082E-04      0.04    <-- DIS
      59      29.01476515      29.00907423       1.962E-04      0.05    <-- DIS
      60      29.01155615      29.00619548       1.848E-04      0.05    <-- DIS
      61      29.00853356      29.00348541       1.741E-04      0.05    <-- DIS
      62      29.00568733      29.00093471       1.639E-04      0.05    <-- DIS
      63      29.00300787      28.99853451       1.543E-04      0.05    <-- DIS
      64      29.00048596      28.99627634       1.452E-04      0.05    <-- DIS
      65      28.99811283      28.99415214       1.366E-04      0.05    <-- DIS
      66      28.99588011      28.99215424       1.285E-04      0.05    <-- DIS
      67      28.99377983      28.99027539       1.209E-04      0.05    <-- DIS
      68      28.99180441      28.98850866       1.137E-04      0.05    <-- DIS
      69      28.98994668      28.98684754       1.069E-04      0.05    <-- DIS
      70      28.98819980      28.98528582       1.005E-04      0.05    <-- DIS
      71      28.98655731      28.98381766       9.452E-05      0.06    <-- DIS
      72      28.98501311      28.98243752       8.887E-05      0.06    <-- DIS
      73      28.98356139      28.98114018       8.354E-05      0.06    <-- DIS
      74      28.98219669      28.97992071       7.854E-05      0.06    <-- DIS
      75      28.98091385      28.97877444       7.383E-05      0.06    <-- DIS
      76      28.97970799      28.97769701       6.940E-05      0.06    <-- DIS
      77      28.97857451      28.97668426       6.523E-05      0.06    <-- DIS
      78      28.97750908      28.97573231       6.132E-05      0.06    <-- DIS
      79      28.97650760      28.97483749       5.764E-05      0.06    <-- DIS
      80      28.97556622      28.97399634       5.418E-05      0.06    <-- DIS
      81      28.97468133      28.97320562       5.093E-05      0.06    <-- DIS
      82      28.97384951      28.97246227       4.788E-05      0.06    <-- DIS
      83      28.97306754      28.97176341       4.501E-05      0.06    <-- DIS
      84      28.97233241      28.97110635       4.232E-05      0.07    <-- DIS
      85      28.97164126      28.97048853       3.979E-05      0.07    <-- DIS
      86      28.97099144      28.96990758       3.741E-05      0.07    <-- DIS
      87      28.97038042      28.96936124       3.518E-05      0.07    <-- DIS
      88      28.96980585      28.96884741       3.309E-05      0.07    <-- DIS
      89      28.96926550      28.96836410       3.112E-05      0.07    <-- DIS
      90      28.96875730      28.96790946       2.927E-05      0.07    <-- DIS
      91      28.96827927      28.96748174       2.753E-05      0.07    <-- DIS
      92      28.96782959      28.96707928       2.590E-05      0.07    <-- DIS
      93      28.96740652      28.96670056       2.437E-05      0.07    <-- DIS
      94      28.96700843      28.96634412       2.293E-05      0.07    <-- DIS
      95      28.96663381      28.96600860       2.158E-05      0.07    <-- DIS
      96      28.96628122      28.96569273       2.032E-05      0.07    <-- DIS
      97      28.96594932      28.96539530       1.913E-05      0.08    <-- DIS
      98      28.96563685      28.96511520       1.801E-05      0.08    <-- DIS
      99      28.96534262      28.96485137       1.696E-05      0.08    <-- DIS
     100      28.96506551      28.96460281       1.597E-05      0.08    <-- DIS
     101      28.96480449      28.96436859       1.505E-05      0.08    <-- DIS
     102      28.96455857      28.96414785       1.418E-05      0.08    <-- DIS
     103      28.96432684      28.96393976       1.336E-05      0.08    <-- DIS
     104      28.96410843      28.96374354       1.260E-05      0.08    <-- DIS
     105      28.96390252      28.96355849       1.188E-05      0.08    <-- DIS
     106      28.96370837      28.96338392       1.120E-05      0.08    <-- DIS
     107      28.96352525      28.96321920       1.057E-05      0.08    <-- DIS
     108      28.96335250      28.96306372       9.971E-06      0.08    <-- DIS
     109      28.96318948      28.96291693       9.410E-06      0.08    <-- DIS
     110      28.96303561      28.96277830       8.884E-06      0.09    <-- DIS
     111      28.96289032      28.96264734       8.389E-06      0.09    <-- DIS
     112      28.96275311      28.96252359       7.925E-06      0.09    <-- DIS
     113      28.96262349      28.96240661       7.488E-06      0.09    <-- DIS
     114      28.96250098      28.96229598       7.078E-06      0.09    <-- DIS
     115      28.96238518      28.96219134       6.693E-06      0.09    <-- DIS
     116      28.96227566      28.96209232       6.330E-06      0.09    <-- DIS
     117      28.96217206      28.96199858       5.990E-06      0.09    <-- DIS
     118      28.96207402      28.96190980       5.670E-06      0.09    <-- DIS
     119      28.96198120      28.96182570       5.369E-06      0.09    <-- DIS
     120      28.96189329      28.96174598       5.086E-06      0.09    <-- DIS
     121      28.96181000      28.96167040       4.820E-06      0.09    <-- DIS
     122      28.96173105      28.96159869       4.570E-06      0.09    <-- DIS
     123      28.96165619      28.96153064       4.335E-06      0.10    <-- DIS
     124      28.96158516      28.96146602       4.114E-06      0.10    <-- DIS
     125      28.96151775      28.96140464       3.906E-06      0.10    <-- DIS
     126      28.96145374      28.96134629       3.710E-06      0.10    <-- DIS
     127      28.96139292      28.96129081       3.526E-06      0.10    <-- DIS
     128      28.96133511      28.96123802       3.352E-06      0.10    <-- DIS
     129      28.96128013      28.96118777       3.189E-06      0.10    <-- DIS
     130      28.96122782      28.96113991       3.035E-06      0.10    <-- DIS
     131      28.96117802      28.96109430       2.891E-06      0.10    <-- DIS
     132      28.96113058      28.96105080       2.755E-06      0.10    <-- DIS
     133      28.96108536      28.96100930       2.626E-06      0.10    <-- DIS
     134      28.96104224      28.96096969       2.505E-06      0.10    <-- DIS
     135      28.96100110      28.96093184       2.391E-06      0.11    <-- DIS
     136      28.96096182      28.96089567       2.284E-06      0.11    <-- DIS
     137      28.96092429      28.96086107       2.183E-06      0.11    <-- DIS
     138      28.96088841      28.96082796       2.087E-06      0.11    <-- DIS
     139      28.96085410      28.96079625       1.997E-06      0.11    <-- DIS
     140      28.96082126      28.96076587       1.913E-06      0.11    <-- DIS
     141      28.96078980      28.96073673       1.832E-06      0.11    <-- DIS
     142      28.96075965      28.96070878       1.757E-06      0.11    <-- DIS
     143      28.96073074      28.96068193       1.685E-06      0.11    <-- DIS
     144      28.96070300      28.96065615       1.618E-06      0.11    <-- DIS
     145      28.96067636      28.96063135       1.554E-06      0.11    <-- DIS
     146      28.96065076      28.96060750       1.494E-06      0.11    <-- DIS
     147      28.96062615      28.96058453       1.437E-06      0.11    <-- DIS
     148      28.96060247      28.96056241       1.383E-06      0.12    <-- DIS
     149      28.96057967      28.96054108       1.332E-06      0.12    <-- DIS
     150      28.96055770      28.96052051       1.284E-06      0.12    <-- DIS
     151      28.96053652      28.96050065       1.238E-06      0.12    <-- DIS
     152      28.96051609      28.96048147       1.195E-06      0.12    <-- DIS
     153      28.96049636      28.96046293       1.154E-06      0.12    <-- DIS
     154      28.96047730      28.96044500       1.116E-06      0.12    <-- DIS
     155      28.96045888      28.96042764       1.079E-06      0.12    <-- DIS
     156      28.96044107      28.96041084       1.044E-06      0.12    <-- DIS
     157      28.96042382      28.96039455       1.011E-06      0.12    <-- DIS
     158      28.96040712      28.96037876       9.792E-07      0.12    <-- DIS
     159      28.96039093      28.96036344       9.493E-07      0.12    <-- DIS
     160      28.96037523      28.96034856       9.209E-07      0.13    <-- DIS
     161      28.96036000      28.96033411       8.939E-07      0.13    <-- DIS
     162      28.96034521      28.96032007       8.682E-07      0.13    <-- DIS
     163      28.96033084      28.96030641       8.437E-07      0.13    <-- DIS
     164      28.96031688      28.96029312       8.204E-07      0.13    <-- DIS
     165      28.96030329      28.96028018       7.982E-07      0.13    <-- DIS
     166      28.96029007      28.96026757       7.770E-07      0.13    <-- DIS
     167      28.96027720      28.96025529       7.568E-07      0.13    <-- DIS
     168      28.96026466      28.96024331       7.375E-07      0.13    <-- DIS
     169      28.96025244      28.96023162       7.190E-07      0.13    <-- DIS
     170      28.96024052      28.96022021       7.014E-07      0.13    <-- DIS
     171      28.96022889      28.96020907       6.845E-07      0.13    <-- DIS
     172      28.96021754      28.96019818       6.684E-07      0.13    <-- DIS
     173      28.96020645      28.96018754       6.529E-07      0.14    <-- DIS
     174      28.96019562      28.96017714       6.381E-07      0.14    <-- DIS
     175      28.96018503      28.96016696       6.239E-07      0.14    <-- DIS
     176      28.96017468      28.96015700       6.103E-07      0.14    <-- DIS
     177      28.96016454      28.96014725       5.972E-07      0.14    <-- DIS
     178      28.96015463      28.96013770       5.846E-07      0.14    <-- DIS
     179      28.96014492      28.96012834       5.725E-07      0.14    <-- DIS
     180      28.96013541      28.96011917       5.609E-07      0.14    <-- DIS
     181      28.96012609      28.96011017       5.497E-07      0.14    <-- DIS
     182      28.96011696      28.96010135       5.389E-07      0.14    <-- DIS
     183      28.96010800      28.96009270       5.285E-07      0.14    <-- DIS
     184      28.96009922      28.96008420       5.185E-07      0.14    <-- DIS
     185      28.96009060      28.96007586       5.088E-07      0.14    <-- DIS
     186      28.96008214      28.96006768       4.994E-07      0.15    <-- DIS
     187      28.96007384      28.96005963       4.904E-07      0.15    <-- DIS
     188      28.96006568      28.96005173       4.816E-07      0.15    <-- DIS
     189      28.96005767      28.96004397       4.732E-07      0.15    <-- DIS
     190      28.96004980      28.96003633       4.650E-07      0.15    <-- DIS
     191      28.96004206      28.96002883       4.570E-07      0.15    <-- DIS
     192      28.96003446      28.96002145       4.493E-07      0.15    <-- DIS
     193      28.96002698      28.96001419       4.418E-07      0.15    <-- DIS
     194      28.96001963      28.96000705       4.346E-07      0.15    <-- DIS
     195      28.96001240      28.96000002       4.275E-07      0.15    <-- DIS
     196      28.96000528      28.95999310       4.207E-07      0.15    <-- DIS
     197      28.95999828      28.95998629       4.140E-07      0.15    <-- DIS
     198      28.95999139      28.95997959       4.075E-07      0.15    <-- DIS
     199      28.95998460      28.95997298       4.012E-07      0.16    <-- DIS
     200      28.95997792      28.95996648       3.950E-07      0.16    <-- DIS
     201      28.95997134      28.95996008       3.890E-07      0.16    <-- DIS
     202      28.95996486      28.95995377       3.832E-07      0.16    <-- DIS
     203      28.95995848      28.95994755       3.775E-07      0.16    <-- DIS
     204      28.95995220      28.95994143       3.719E-07      0.16    <-- DIS
     205      28.95994600      28.95993539       3.664E-07      0.16    <-- DIS
     206      28.95993990      28.95992944       3.611E-07      0.16    <-- DIS
     207      28.95993388      28.95992357       3.559E-07      0.16    <-- DIS
     208      28.95992795      28.95991779       3.508E-07      0.16    <-- DIS
     209      28.95992210      28.95991209       3.459E-07      0.16    <-- DIS
     210      28.95991634      28.95990647       3.410E-07      0.16    <-- DIS
     211      28.95991066      28.95990092       3.362E-07      0.17    <-- DIS
