 
             +---------------------------------------------------+
             |                                                   |
             |                   WANNIER90                       |
             |                                                   |
             +---------------------------------------------------+
             |                                                   |
             |        Welcome to the Maximally-Localized         |
             |        Generalized Wannier Functions code         |
             |            http://www.wannier.org                 |
             |                                                   |
             |                                                   |
             |  Wannier90 Developer Group:                       |
             |    Giovanni Pizzi    (Paul Scherrer Institute)    |
             |    Valerio Vitale    (University of Trieste)      |
             |    David Vanderbilt  (Rutgers University)         |
             |    Nicola Marzari    (EPFL)                       |
             |    Ivo Souza         (Universidad del Pais Vasco) |
             |    Arash A. Mostofi  (Imperial College London)    |
             |    Jonathan R. Yates (University of Oxford)       |
             |                                                   |
             |  For the full list of Wannier90 3.x authors,      |
             |  please check the code documentation and the      |
             |  README on the GitHub page of the code            |
             |                                                   |
             |                                                   |
             |  Please cite                                      |
             |                                                   |
             |  [ref] "Wannier90 as a community code:            |
             |        new features and applications",            |
             |        G. Pizzi et al., J. Phys. Cond. Matt. 32,  |
             |        165902 (2020).                             |
             |        http://doi.org/10.1088/1361-648X/ab51ff    |
             |                                                   |
             |  in any publications arising from the use of      |
             |  this code. For the method please cite            |
             |                                                   |
             |  [ref] "Maximally Localized Generalised Wannier   |
             |         Functions for Composite Energy Bands"     |
             |         N. Marzari and D. Vanderbilt              |
             |         Phys. Rev. B 56 12847 (1997)              |
             |                                                   |
             |  [ref] "Maximally Localized Wannier Functions     |
             |         for Entangled Energy Bands"               |
             |         I. Souza, N. Marzari and D. Vanderbilt    |
             |         Phys. Rev. B 65 035109 (2001)             |
             |                                                   |
             |                                                   |
             | Copyright (c) 1996-2020                           |
             |        The Wannier90 Developer Group and          |
             |        individual contributors                    |
             |                                                   |
             |      Release: 3.1.0        5th March    2020      |
             |                                                   |
             | This program is free software; you can            |
             | redistribute it and/or modify it under the terms  |
             | of the GNU General Public License as published by |
             | the Free Software Foundation; either version 2 of |
             | the License, or (at your option) any later version|
             |                                                   |
             | This program is distributed in the hope that it   |
             | will be useful, but WITHOUT ANY WARRANTY; without |
             | even the implied warranty of MERCHANTABILITY or   |
             | FITNESS FOR A PARTICULAR PURPOSE. See the GNU     |
             | General Public License for more details.          |
             |                                                   |
             | You should have received a copy of the GNU General|
             | Public License along with this program; if not,   |
             | write to the Free Software Foundation, Inc.,      |
             | 675 Mass Ave, Cambridge, MA 02139, USA.           |
             |                                                   |
             +---------------------------------------------------+
             |    Execution started on 13Apr2024 at 08:19:43     |
             +---------------------------------------------------+
 
 ******************************************************************************
 * -> Using CODATA 2006 constant values                                       *
 *    (http://physics.nist.gov/cuu/Constants/index.html)                      *
 * -> Using Bohr value from CODATA                                            *
 ******************************************************************************
 

 Running in serial (with parallel executable)
 
                                    ------
                                    SYSTEM
                                    ------
 
                              Lattice Vectors (Ang)
                    a_1     1.745491   1.745491   1.745491
                    a_2    -1.745491   1.745491   1.745491
                    a_3    -1.745491  -1.745491   1.745491
 
                   Unit Cell Volume:      21.27222  (Ang^3)
 
                        Reciprocal-Space Vectors (Ang^-1)
                    b_1     1.799833   0.000000   1.799833
                    b_2    -1.799833   1.799833   0.000000
                    b_3     0.000000  -1.799833   1.799833
  
 *----------------------------------------------------------------------------*
 |   Site       Fractional Coordinate          Cartesian Coordinate (Ang)     |
 +----------------------------------------------------------------------------+
 | li   1   0.00000   0.00000   0.00000   |    0.00000   0.00000   0.00000    |
 *----------------------------------------------------------------------------*
                                ------------
                                K-POINT GRID
                                ------------
  
             Grid size =  4 x  4 x  4      Total points =   64
  
  
 *---------------------------------- MAIN ------------------------------------*
 |  Number of Wannier Functions               :                 4             |
 |  Number of Objective Wannier Functions     :                 4             |
 |  Number of input Bloch states              :                 8             |
 |  Output verbosity (1=low, 5=high)          :                 1             |
 |  Timing Level (1=low, 5=high)              :                 1             |
 |  Optimisation (0=memory, 3=speed)          :                 3             |
 |  Length Unit                               :               Ang             |
 |  Post-processing setup (write *.nnkp)      :                 F             |
 |  Using Gamma-only branch of algorithms     :                 F             |
 *----------------------------------------------------------------------------*
 *------------------------------- WANNIERISE ---------------------------------*
 |  Total number of iterations                :                 0             |
 |  Number of CG steps before reset           :                 5             |
 |  Trial step length for line search         :             2.000             |
 |  Convergence tolerence                     :         0.100E-09             |
 |  Convergence window                        :                -1             |
 |  Iterations between writing output         :                 1             |
 |  Iterations between backing up to disk     :               100             |
 |  Write r^2_nm to file                      :                 F             |
 |  Write xyz WF centres to file              :                 F             |
 |  Write on-site energies <0n|H|0n> to file  :                 F             |
 |  Use guiding centre to control phases      :                 F             |
 |  Use phases for initial projections        :                 F             |
 *----------------------------------------------------------------------------*
 *------------------------------- DISENTANGLE --------------------------------*
 |  Using band disentanglement                :                 T             |
 |  Total number of iterations                :               200             |
 |  Mixing ratio                              :             1.000             |
 |  Convergence tolerence                     :         1.000E-10             |
 |  Convergence window                        :                 3             |
 *----------------------------------------------------------------------------*

 *---------------------------------- K-MESH ----------------------------------*
 +----------------------------------------------------------------------------+
 |                    Distance to Nearest-Neighbour Shells                    |
 |                    ------------------------------------                    |
 |          Shell             Distance (Ang^-1)          Multiplicity         |
 |          -----             -----------------          ------------         |
 |             1                   0.636337                     12            |
 |             2                   0.899917                      6            |
 |             3                   1.102168                     24            |
 |             4                   1.272674                     12            |
 |             5                   1.422893                     24            |
 |             6                   1.558701                      8            |
 |             7                   1.683590                     48            |
 |             8                   1.799833                      6            |
 |             9                   1.909011                     36            |
 |            10                   2.012275                     24            |
 |            11                   2.110492                     24            |
 |            12                   2.204337                     24            |
 |            13                   2.294346                     72            |
 |            14                   2.464523                     48            |
 |            15                   2.545349                     12            |
 |            16                   2.623685                     48            |
 |            17                   2.699750                     30            |
 |            18                   2.773729                     72            |
 |            19                   2.845786                     24            |
 |            20                   2.916063                     48            |
 |            21                   2.984686                     24            |
 |            22                   3.051766                     48            |
 |            23                   3.117403                      8            |
 |            24                   3.181686                     84            |
 |            25                   3.244696                     24            |
 |            26                   3.306505                     96            |
 |            27                   3.367180                     48            |
 |            28                   3.426780                     24            |
 |            29                   3.542975                     96            |
 |            30                   3.599666                      6            |
 |            31                   3.655479                     96            |
 |            32                   3.710451                     48            |
 |            33                   3.764621                     48            |
 |            34                   3.818023                     36            |
 |            35                   3.870688                    120            |
 |            36                   3.922646                     24            |
 +----------------------------------------------------------------------------+
 | The b-vectors are chosen automatically                                     |
 | The following shells are used:   1                                         |
 +----------------------------------------------------------------------------+
 |                        Shell   # Nearest-Neighbours                        |
 |                        -----   --------------------                        |
 |                          1              12                                 |
 +----------------------------------------------------------------------------+
 | Completeness relation is fully satisfied [Eq. (B1), PRB 56, 12847 (1997)]  |
 +----------------------------------------------------------------------------+
 |                  b_k Vectors (Ang^-1) and Weights (Ang^2)                  |
 |                  ----------------------------------------                  |
 |            No.         b_k(x)      b_k(y)      b_k(z)        w_b           |
 |            ---        --------------------------------     --------        |
 |             1        -0.449958    0.449958    0.000000     0.617398        |
 |             2         0.449958    0.000000    0.449958     0.617398        |
 |             3         0.000000    0.449958    0.449958     0.617398        |
 |             4         0.000000   -0.449958    0.449958     0.617398        |
 |             5        -0.449958    0.000000    0.449958     0.617398        |
 |             6         0.000000    0.449958   -0.449958     0.617398        |
 |             7         0.449958    0.449958    0.000000     0.617398        |
 |             8         0.449958   -0.449958    0.000000     0.617398        |
 |             9         0.449958    0.000000   -0.449958     0.617398        |
 |            10        -0.449958    0.000000   -0.449958     0.617398        |
 |            11        -0.449958   -0.449958    0.000000     0.617398        |
 |            12         0.000000   -0.449958   -0.449958     0.617398        |
 +----------------------------------------------------------------------------+
 |                           b_k Directions (Ang^-1)                          |
 |                           -----------------------                          |
 |            No.           x           y           z                         |
 |            ---        --------------------------------                     |
 |             1        -0.449958    0.449958    0.000000                     |
 |             2         0.449958    0.000000    0.449958                     |
 |             3         0.000000    0.449958    0.449958                     |
 |             4         0.000000   -0.449958    0.449958                     |
 |             5        -0.449958    0.000000    0.449958                     |
 |             6         0.449958    0.449958    0.000000                     |
 +----------------------------------------------------------------------------+
  
 Starting a new Wannier90 calculation ...


 Reading overlaps from wannier.mmn    : Created on 25Feb2006 at 11:03:51

 Reading projections from wannier.amn : Created on 25Feb2006 at 11:03:51

 *------------------------------- DISENTANGLE --------------------------------*
 +----------------------------------------------------------------------------+
 |                              Energy  Windows                               |
 |                              ---------------                               |
 |                   Outer:    5.80000  to   28.40000  (eV)                   |
 |                   No frozen states were specified                          |
 +----------------------------------------------------------------------------+
   Number of target bands to extract:    4

                   Unitarised projection of Wannier functions                  
                   ------------------------------------------                  
   A_mn = <psi_m|g_n> --> S = A.A^+ --> U = S^-1/2.A
   In dis_project... done
   No inner window (linner = F)

                   Extraction of optimally-connected subspace                  
                   ------------------------------------------                  
 +---------------------------------------------------------------------+<-- DIS
 |  Iter     Omega_I(i-1)      Omega_I(i)      Delta (frac.)    Time   |<-- DIS
 +---------------------------------------------------------------------+<-- DIS
       1      11.24208010      10.84171145       3.693E-02      0.00    <-- DIS
       2      10.77036925      10.60248401       1.583E-02      0.00    <-- DIS
       3      10.54700765      10.39860049       1.427E-02      0.00    <-- DIS
       4      10.32236530      10.21283970       1.072E-02      0.00    <-- DIS
       5      10.11081776       9.83235657       2.832E-02      0.00    <-- DIS
       6       9.68221580       9.45575939       2.395E-02      0.01    <-- DIS
       7       9.37962071       9.26512994       1.236E-02      0.01    <-- DIS
       8       9.22742899       9.16501038       6.811E-03      0.01    <-- DIS
       9       9.14917673       9.11483188       3.768E-03      0.01    <-- DIS
      10       9.10593287       9.08399518       2.415E-03      0.01    <-- DIS
      11       9.07808067       9.06236944       1.734E-03      0.01    <-- DIS
      12       9.05796972       9.04593137       1.331E-03      0.01    <-- DIS
      13       9.04253519       9.03317443       1.036E-03      0.01    <-- DIS
      14       9.03052900       9.02322132       8.099E-04      0.02    <-- DIS
      15       9.02114793       9.01539218       6.384E-04      0.02    <-- DIS
      16       9.01374344       9.00914594       5.103E-04      0.02    <-- DIS
      17       9.00781919       9.00410786       4.122E-04      0.02    <-- DIS
      18       9.00303290       9.00002379       3.343E-04      0.02    <-- DIS
      19       8.99915319       8.99671908       2.706E-04      0.02    <-- DIS
      20       8.99601791       8.99406247       2.174E-04      0.02    <-- DIS
      21       8.99350273       8.99194645       1.731E-04      0.02    <-- DIS
      22       8.99150397       8.99027749       1.364E-04      0.03    <-- DIS
      23       8.98993100       8.98897317       1.066E-04      0.03    <-- DIS
      24       8.98870404       8.98796171       8.259E-05      0.03    <-- DIS
      25       8.98775403       8.98718214       6.363E-05      0.03    <-- DIS
      26       8.98702264       8.98658392       4.882E-05      0.03    <-- DIS
      27       8.98646181       8.98612617       3.735E-05      0.03    <-- DIS
      28       8.98603284       8.98577640       2.854E-05      0.03    <-- DIS
      29       8.98570511       8.98550920       2.180E-05      0.03    <-- DIS
      30       8.98545472       8.98530492       1.667E-05      0.04    <-- DIS
      31       8.98526322       8.98514849       1.277E-05      0.04    <-- DIS
      32       8.98511650       8.98502841       9.804E-06      0.04    <-- DIS
      33       8.98500380       8.98493595       7.551E-06      0.04    <-- DIS
      34       8.98491695       8.98486452       5.836E-06      0.04    <-- DIS
      35       8.98484979       8.98480909       4.529E-06      0.04    <-- DIS
      36       8.98479763       8.98476591       3.531E-06      0.04    <-- DIS
      37       8.98475694       8.98473209       2.766E-06      0.04    <-- DIS
      38       8.98472505       8.98470548       2.177E-06      0.05    <-- DIS
      39       8.98469992       8.98468443       1.723E-06      0.05    <-- DIS
      40       8.98468001       8.98466769       1.371E-06      0.05    <-- DIS
      41       8.98466416       8.98465431       1.097E-06      0.05    <-- DIS
      42       8.98465147       8.98464354       8.825E-07      0.05    <-- DIS
      43       8.98464125       8.98463484       7.138E-07      0.05    <-- DIS
      44       8.98463298       8.98462776       5.805E-07      0.05    <-- DIS
      45       8.98462625       8.98462198       4.745E-07      0.05    <-- DIS
      46       8.98462074       8.98461724       3.898E-07      0.06    <-- DIS
      47       8.98461621       8.98461332       3.217E-07      0.06    <-- DIS
      48       8.98461247       8.98461008       2.667E-07      0.06    <-- DIS
      49       8.98460937       8.98460738       2.220E-07      0.06    <-- DIS
      50       8.98460679       8.98460512       1.855E-07      0.06    <-- DIS
      51       8.98460463       8.98460323       1.555E-07      0.06    <-- DIS
      52       8.98460282       8.98460164       1.308E-07      0.06    <-- DIS
      53       8.98460129       8.98460030       1.103E-07      0.06    <-- DIS
      54       8.98460001       8.98459917       9.331E-08      0.07    <-- DIS
      55       8.98459892       8.98459821       7.910E-08      0.07    <-- DIS
      56       8.98459799       8.98459739       6.718E-08      0.07    <-- DIS
      57       8.98459721       8.98459670       5.717E-08      0.07    <-- DIS
      58       8.98459654       8.98459610       4.873E-08      0.07    <-- DIS
      59       8.98459597       8.98459560       4.159E-08      0.07    <-- DIS
      60       8.98459549       8.98459517       3.554E-08      0.07    <-- DIS
      61       8.98459507       8.98459480       3.041E-08      0.07    <-- DIS
      62       8.98459472       8.98459448       2.604E-08      0.08    <-- DIS
      63       8.98459441       8.98459421       2.232E-08      0.08    <-- DIS
      64       8.98459415       8.98459398       1.915E-08      0.08    <-- DIS
      65       8.98459393       8.98459378       1.643E-08      0.08    <-- DIS
      66       8.98459374       8.98459361       1.412E-08      0.08    <-- DIS
      67       8.98459357       8.98459346       1.213E-08      0.08    <-- DIS
      68       8.98459343       8.98459334       1.043E-08      0.08    <-- DIS
      69       8.98459331       8.98459323       8.970E-09      0.08    <-- DIS
      70       8.98459320       8.98459313       7.718E-09      0.08    <-- DIS
      71       8.98459311       8.98459305       6.643E-09      0.09    <-- DIS
      72       8.98459303       8.98459298       5.719E-09      0.09    <-- DIS
      73       8.98459297       8.98459292       4.926E-09      0.09    <-- DIS
      74       8.98459291       8.98459287       4.243E-09      0.09    <-- DIS
      75       8.98459286       8.98459283       3.656E-09      0.09    <-- DIS
      76       8.98459282       8.98459279       3.151E-09      0.09    <-- DIS
      77       8.98459278       8.98459276       2.716E-09      0.09    <-- DIS
      78       8.98459275       8.98459273       2.342E-09      0.09    <-- DIS
      79       8.98459272       8.98459270       2.020E-09      0.10    <-- DIS
      80       8.98459270       8.98459268       1.742E-09      0.10    <-- DIS
      81       8.98459268       8.98459266       1.502E-09      0.10    <-- DIS
      82       8.98459266       8.98459265       1.296E-09      0.10    <-- DIS
      83       8.98459264       8.98459263       1.118E-09      0.10    <-- DIS
      84       8.98459263       8.98459262       9.651E-10      0.10    <-- DIS
      85       8.98459262       8.98459261       8.329E-10      0.10    <-- DIS
      86       8.98459261       8.98459260       7.189E-10      0.11    <-- DIS
      87       8.98459260       8.98459260       6.206E-10      0.11    <-- DIS
      88       8.98459260       8.98459259       5.358E-10      0.11    <-- DIS
      89       8.98459259       8.98459258       4.626E-10      0.11    <-- DIS
      90       8.98459258       8.98459258       3.994E-10      0.11    <-- DIS
      91       8.98459258       8.98459258       3.449E-10      0.11    <-- DIS
      92       8.98459257       8.98459257       2.979E-10      0.11    <-- DIS
      93       8.98459257       8.98459257       2.573E-10      0.11    <-- DIS
      94       8.98459257       8.98459257       2.223E-10      0.12    <-- DIS
      95       8.98459257       8.98459256       1.920E-10      0.12    <-- DIS
      96       8.98459256       8.98459256       1.659E-10      0.12    <-- DIS
      97       8.98459256       8.98459256       1.433E-10      0.12    <-- DIS
      98       8.98459256       8.98459256       1.238E-10      0.12    <-- DIS
      99       8.98459256       8.98459256       1.070E-10      0.12    <-- DIS
     100       8.98459256       8.98459256       9.244E-11      0.12    <-- DIS
     101       8.98459256       8.98459256       7.989E-11      0.12    <-- DIS
     102       8.98459256       8.98459255       6.904E-11      0.13    <-- DIS

             <<<      Delta < 1.000E-10  over  3 iterations     >>>
             <<< Disentanglement convergence criteria satisfied >>>

        Final Omega_I     8.98459255 (Ang^2)

 +----------------------------------------------------------------------------+


 Writing checkpoint file wannier.chk... done

 
 *------------------------------- WANNIERISE ---------------------------------*
 +--------------------------------------------------------------------+<-- CONV
 | Iter  Delta Spread     RMS Gradient      Spread (Ang^2)      Time  |<-- CONV
 +--------------------------------------------------------------------+<-- CONV
 
 ------------------------------------------------------------------------------
 Initial State
  WF centre and spread    1  (  0.486109,  0.450255,  0.389690 )    11.30971092
  WF centre and spread    2  (  0.426097, -0.616067, -0.183819 )    11.32460905
  WF centre and spread    3  ( -0.574558,  0.633762, -0.356021 )    12.85516277
  WF centre and spread    4  ( -0.404166, -0.481556,  0.763340 )    13.03458815
  Sum of centres and spreads ( -0.066519, -0.013607,  0.613190 )    48.52407090
 
      0     0.485E+02     0.0000000000       48.5240709006       0.13  <-- CONV
        O_D=     27.7880891 O_OD=     11.7513893 O_TOT=     48.5240709 <-- SPRD
 ------------------------------------------------------------------------------
 Final State
  WF centre and spread    1  (  0.486109,  0.450255,  0.389690 )    11.30971092
  WF centre and spread    2  (  0.426097, -0.616067, -0.183819 )    11.32460905
  WF centre and spread    3  ( -0.574558,  0.633762, -0.356021 )    12.85516277
  WF centre and spread    4  ( -0.404166, -0.481556,  0.763340 )    13.03458815
  Sum of centres and spreads ( -0.066519, -0.013607,  0.613190 )    48.52407090
 
         Spreads (Ang^2)       Omega I      =     8.984592554
        ================       Omega D      =    27.788089057
                               Omega OD     =    11.751389289
    Final Spread (Ang^2)       Omega Total  =    48.524070901
 ------------------------------------------------------------------------------

 Writing checkpoint file wannier.chk... done

 *---------------------------------------------------------------------------*
 |                               PLOTTING                                    |
 *---------------------------------------------------------------------------*
 

 *===========================================================================*
 |                             TIMING INFORMATION                            |
 *===========================================================================*
 |    Tag                                                Ncalls      Time (s)|
 |---------------------------------------------------------------------------|
 |kmesh: get                                        :         1         0.027|
 |overlap: read                                     :         1         0.038|
 |dis: main                                         :         1         0.129|
 |wann: main                                        :         1         0.000|
 |plot: main                                        :         1         0.005|
 *---------------------------------------------------------------------------*
