
             +---------------------------------------------------+
             |                                                   |
             |                   WANNIER90                       |
             |                                                   |
             +---------------------------------------------------+
             |                                                   |
             |        Welcome to the Maximally-Localized         |
             |        Generalized Wannier Functions code         |
             |            http://www.wannier.org                 |
             |                                                   |
             |                                                   |
             |  Wannier90 Developer Group:                       |
             |    Giovanni Pizzi    (Paul Scherrer Institute)    |
             |    Valerio Vitale    (University of Trieste)      |
             |    David Vanderbilt  (Rutgers University)         |
             |    Nicola Marzari    (EPFL)                       |
             |    Ivo Souza         (Universidad del Pais Vasco) |
             |    Arash A. Mostofi  (Imperial College London)    |
             |    Jonathan R. Yates (University of Oxford)       |
             |                                                   |
             |  For the full list of Wannier90 3.x authors,      |
             |  please check the code documentation and the      |
             |  README on the GitHub page of the code            |
             |                                                   |
             |                                                   |
             |  Please cite                                      |
             |                                                   |
             |  [ref] "Wannier90 as a community code:            |
             |        new features and applications",            |
             |        G. Pizzi et al., J. Phys. Cond. Matt. 32,  |
             |        165902 (2020).                             |
             |        http://doi.org/10.1088/1361-648X/ab51ff    |
             |                                                   |
             |  in any publications arising from the use of      |
             |  this code. For the method please cite            |
             |                                                   |
             |  [ref] "Maximally Localized Generalised Wannier   |
             |         Functions for Composite Energy Bands"     |
             |         N. Marzari and D. Vanderbilt              |
             |         Phys. Rev. B 56 12847 (1997)              |
             |                                                   |
             |  [ref] "Maximally Localized Wannier Functions     |
             |         for Entangled Energy Bands"               |
             |         I. Souza, N. Marzari and D. Vanderbilt    |
             |         Phys. Rev. B 65 035109 (2001)             |
             |                                                   |
             |                                                   |
             | Copyright (c) 1996-2020                           |
             |        The Wannier90 Developer Group and          |
             |        individual contributors                    |
             |                                                   |
             |      Release: 3.1.0        5th March    2020      |
             |                                                   |
             | This program is free software; you can            |
             | redistribute it and/or modify it under the terms  |
             | of the GNU General Public License as published by |
             | the Free Software Foundation; either version 2 of |
             | the License, or (at your option) any later version|
             |                                                   |
             | This program is distributed in the hope that it   |
             | will be useful, but WITHOUT ANY WARRANTY; without |
             | even the implied warranty of MERCHANTABILITY or   |
             | FITNESS FOR A PARTICULAR PURPOSE. See the GNU     |
             | General Public License for more details.          |
             |                                                   |
             | You should have received a copy of the GNU General|
             | Public License along with this program; if not,   |
             | write to the Free Software Foundation, Inc.,      |
             | 675 Mass Ave, Cambridge, MA 02139, USA.           |
             |                                                   |
             +---------------------------------------------------+
             |    Execution started on  4Apr2024 at 10:17:56     |
             +---------------------------------------------------+
 
 ******************************************************************************
 * -> Using CODATA 2006 constant values                                       *
 *    (http://physics.nist.gov/cuu/Constants/index.html)                      *
 * -> Using Bohr value from CODATA                                            *
 ******************************************************************************
 

 Running in serial (with parallel executable)

                                    ------
                                    SYSTEM
                                    ------

                              Lattice Vectors (Ang)
                    a_1     1.745491   1.745491   1.745491
                    a_2    -1.745491   1.745491   1.745491
                    a_3    -1.745491  -1.745491   1.745491

                   Unit Cell Volume:      21.27222  (Ang^3)

                        Reciprocal-Space Vectors (Ang^-1)
                    b_1     1.799833   0.000000   1.799833
                    b_2    -1.799833   1.799833   0.000000
                    b_3     0.000000  -1.799833   1.799833
  
 *----------------------------------------------------------------------------*
 |   Site       Fractional Coordinate          Cartesian Coordinate (Ang)     |
 +----------------------------------------------------------------------------+
 | li   1   0.00000   0.00000   0.00000   |    0.00000   0.00000   0.00000    |
 *----------------------------------------------------------------------------*
                                ------------
                                K-POINT GRID
                                ------------
  
             Grid size =  4 x  4 x  4      Total points =   64
  
  
 *---------------------------------- MAIN ------------------------------------*
 |  Number of Wannier Functions               :                 4             |
 |  Number of Objective Wannier Functions     :                 4             |
 |  Number of input Bloch states              :                 8             |
 |  Output verbosity (1=low, 5=high)          :                 1             |
 |  Timing Level (1=low, 5=high)              :                 1             |
 |  Optimisation (0=memory, 3=speed)          :                 3             |
 |  Length Unit                               :               Ang             |
 |  Post-processing setup (write *.nnkp)      :                 F             |
 |  Using Gamma-only branch of algorithms     :                 F             |
 *----------------------------------------------------------------------------*
 *------------------------------- WANNIERISE ---------------------------------*
 |  Total number of iterations                :                 0             |
 |  Number of CG steps before reset           :                 5             |
 |  Trial step length for line search         :             2.000             |
 |  Convergence tolerence                     :         0.100E-09             |
 |  Convergence window                        :                -1             |
 |  Iterations between writing output         :                 1             |
 |  Iterations between backing up to disk     :               100             |
 |  Write r^2_nm to file                      :                 F             |
 |  Write xyz WF centres to file              :                 F             |
 |  Write on-site energies <0n|H|0n> to file  :                 F             |
 |  Use guiding centre to control phases      :                 F             |
 |  Use phases for initial projections        :                 F             |
 *----------------------------------------------------------------------------*
 *------------------------------- DISENTANGLE --------------------------------*
 |  Using band disentanglement                :                 T             |
 |  Total number of iterations                :               200             |
 |  Mixing ratio                              :             1.000             |
 |  Convergence tolerence                     :         1.000E-10             |
 |  Convergence window                        :                 3             |
 *----------------------------------------------------------------------------*

 *---------------------------------- K-MESH ----------------------------------*
 +----------------------------------------------------------------------------+
 |                    Distance to Nearest-Neighbour Shells                    |
 |                    ------------------------------------                    |
 |          Shell             Distance (Ang^-1)          Multiplicity         |
 |          -----             -----------------          ------------         |
 |             1                   0.636337                     12            |
 |             2                   0.899917                      6            |
 |             3                   1.102168                     24            |
 |             4                   1.272674                     12            |
 |             5                   1.422893                     24            |
 |             6                   1.558701                      8            |
 |             7                   1.683590                     48            |
 |             8                   1.799833                      6            |
 |             9                   1.909011                     36            |
 |            10                   2.012275                     24            |
 |            11                   2.110492                     24            |
 |            12                   2.204337                     24            |
 |            13                   2.294346                     72            |
 |            14                   2.464523                     48            |
 |            15                   2.545349                     12            |
 |            16                   2.623685                     48            |
 |            17                   2.699750                     30            |
 |            18                   2.773729                     72            |
 |            19                   2.845786                     24            |
 |            20                   2.916063                     48            |
 |            21                   2.984686                     24            |
 |            22                   3.051766                     48            |
 |            23                   3.117403                      8            |
 |            24                   3.181686                     84            |
 |            25                   3.244696                     24            |
 |            26                   3.306505                     96            |
 |            27                   3.367180                     48            |
 |            28                   3.426780                     24            |
 |            29                   3.542975                     96            |
 |            30                   3.599666                      6            |
 |            31                   3.655479                     96            |
 |            32                   3.710451                     48            |
 |            33                   3.764621                     48            |
 |            34                   3.818023                     36            |
 |            35                   3.870688                    120            |
 |            36                   3.922646                     24            |
 +----------------------------------------------------------------------------+
 | The b-vectors are chosen automatically                                     |
 | The following shells are used:   1                                         |
 +----------------------------------------------------------------------------+
 |                        Shell   # Nearest-Neighbours                        |
 |                        -----   --------------------                        |
 |                          1              12                                 |
 +----------------------------------------------------------------------------+
 | Completeness relation is fully satisfied [Eq. (B1), PRB 56, 12847 (1997)]  |
 +----------------------------------------------------------------------------+
 |                  b_k Vectors (Ang^-1) and Weights (Ang^2)                  |
 |                  ----------------------------------------                  |
 |            No.         b_k(x)      b_k(y)      b_k(z)        w_b           |
 |            ---        --------------------------------     --------        |
 |             1        -0.449958    0.449958    0.000000     0.617398        |
 |             2         0.449958    0.000000    0.449958     0.617398        |
 |             3         0.000000    0.449958    0.449958     0.617398        |
 |             4         0.000000   -0.449958    0.449958     0.617398        |
 |             5        -0.449958    0.000000    0.449958     0.617398        |
 |             6         0.000000    0.449958   -0.449958     0.617398        |
 |             7         0.449958    0.449958    0.000000     0.617398        |
 |             8         0.449958   -0.449958    0.000000     0.617398        |
 |             9         0.449958    0.000000   -0.449958     0.617398        |
 |            10        -0.449958    0.000000   -0.449958     0.617398        |
 |            11        -0.449958   -0.449958    0.000000     0.617398        |
 |            12         0.000000   -0.449958   -0.449958     0.617398        |
 +----------------------------------------------------------------------------+
 |                           b_k Directions (Ang^-1)                          |
 |                           -----------------------                          |
 |            No.           x           y           z                         |
 |            ---        --------------------------------                     |
 |             1        -0.449958    0.449958    0.000000                     |
 |             2         0.449958    0.000000    0.449958                     |
 |             3         0.000000    0.449958    0.449958                     |
 |             4         0.000000   -0.449958    0.449958                     |
 |             5        -0.449958    0.000000    0.449958                     |
 |             6         0.449958    0.449958    0.000000                     |
 +----------------------------------------------------------------------------+
  
 Starting a new Wannier90 calculation ...


 Reading overlaps from wannier.mmn    : Created on 25Feb2006 at 11:03:51

 Reading projections from wannier.amn : Created on 25Feb2006 at 11:03:51

 *------------------------------- DISENTANGLE --------------------------------*
 +----------------------------------------------------------------------------+
 |                              Energy  Windows                               |
 |                              ---------------                               |
 |                   Outer:    5.80000  to   28.40000  (eV)                   |
 |                   No frozen states were specified                          |
 +----------------------------------------------------------------------------+
   Number of target bands to extract:    4

                   Unitarised projection of Wannier functions                  
                   ------------------------------------------                  
   A_mn = <psi_m|g_n> --> S = A.A^+ --> U = S^-1/2.A
   In dis_project... done
   No inner window (linner = F)

                   Extraction of optimally-connected subspace                  
                   ------------------------------------------                  
 +---------------------------------------------------------------------+<-- DIS
 |  Iter     Omega_I(i-1)      Omega_I(i)      Delta (frac.)    Time   |<-- DIS
 +---------------------------------------------------------------------+<-- DIS
       1      11.13810656      10.62500026       4.829E-02      0.00    <-- DIS
       2      10.37682586      10.08185351       2.926E-02      0.00    <-- DIS
       3       9.90927013       9.60906724       3.124E-02      0.00    <-- DIS
       4       9.48269935       9.35165988       1.401E-02      0.00    <-- DIS
       5       9.29168292       9.24565357       4.978E-03      0.01    <-- DIS
       6       9.21166469       9.18787894       2.589E-03      0.01    <-- DIS
       7       9.16566779       9.16905374      -3.693E-04      0.01    <-- DIS
       8       9.11763259       9.12395717      -6.932E-04      0.01    <-- DIS
       9       9.05790883       9.03988969       1.993E-03      0.01    <-- DIS
      10       8.99239446       8.97659919       1.760E-03      0.01    <-- DIS
      11       8.95092237       8.93230667       2.084E-03      0.02    <-- DIS
      12       8.91474545       8.89357022       2.381E-03      0.02    <-- DIS
      13       8.88345659       8.86614099       1.953E-03      0.02    <-- DIS
      14       8.85932140       8.84528623       1.587E-03      0.02    <-- DIS
      15       8.84067824       8.83031119       1.174E-03      0.02    <-- DIS
      16       8.82725631       8.82000037       8.227E-04      0.02    <-- DIS
      17       8.81797006       8.81294611       5.701E-04      0.02    <-- DIS
      18       8.81155920       8.80802642       4.011E-04      0.03    <-- DIS
      19       8.80705779       8.80452719       2.874E-04      0.03    <-- DIS
      20       8.80382873       8.80196904       2.113E-04      0.03    <-- DIS
      21       8.80145075       8.80004704       1.595E-04      0.03    <-- DIS
      22       8.79965046       8.79856173       1.237E-04      0.03    <-- DIS
      23       8.79824988       8.79738425       9.840E-05      0.03    <-- DIS
      24       8.79713310       8.79642976       7.996E-05      0.04    <-- DIS
      25       8.79622325       8.79564077       6.622E-05      0.04    <-- DIS
      26       8.79546793       8.79497748       5.576E-05      0.04    <-- DIS
      27       8.79483052       8.79441143       4.766E-05      0.04    <-- DIS
      28       8.79428477       8.79392196       4.126E-05      0.04    <-- DIS
      29       8.79381146       8.79349375       3.613E-05      0.04    <-- DIS
      30       8.79339631       8.79311528       3.196E-05      0.05    <-- DIS
      31       8.79302857       8.79277777       2.852E-05      0.05    <-- DIS
      32       8.79270000       8.79247451       2.565E-05      0.05    <-- DIS
      33       8.79240428       8.79220026       2.320E-05      0.05    <-- DIS
      34       8.79213648       8.79195091       2.111E-05      0.05    <-- DIS
      35       8.79189273       8.79172325       1.928E-05      0.05    <-- DIS
      36       8.79166998       8.79151468       1.767E-05      0.05    <-- DIS
      37       8.79146579       8.79132313       1.623E-05      0.06    <-- DIS
      38       8.79127817       8.79114692       1.493E-05      0.06    <-- DIS
      39       8.79110553       8.79098465       1.375E-05      0.06    <-- DIS
      40       8.79094652       8.79083517       1.267E-05      0.06    <-- DIS
      41       8.79080004       8.79069748       1.167E-05      0.06    <-- DIS
      42       8.79066514       8.79057074       1.074E-05      0.07    <-- DIS
      43       8.79054099       8.79045419       9.874E-06      0.07    <-- DIS
      44       8.79042686       8.79034717       9.066E-06      0.07    <-- DIS
      45       8.79032211       8.79024907       8.310E-06      0.07    <-- DIS
      46       8.79022612       8.79015930       7.602E-06      0.07    <-- DIS
      47       8.79013834       8.79007734       6.940E-06      0.07    <-- DIS
      48       8.79005824       8.79000267       6.321E-06      0.07    <-- DIS
      49       8.78998530       8.78993480       5.745E-06      0.08    <-- DIS
      50       8.78991903       8.78987325       5.208E-06      0.08    <-- DIS
      51       8.78985898       8.78981757       4.711E-06      0.08    <-- DIS
      52       8.78980468       8.78976731       4.251E-06      0.08    <-- DIS
      53       8.78975570       8.78972206       3.828E-06      0.08    <-- DIS
      54       8.78971161       8.78968139       3.439E-06      0.09    <-- DIS
      55       8.78967202       8.78964492       3.083E-06      0.09    <-- DIS
      56       8.78963653       8.78961229       2.758E-06      0.09    <-- DIS
      57       8.78960480       8.78958314       2.463E-06      0.09    <-- DIS
      58       8.78957646       8.78955716       2.196E-06      0.09    <-- DIS
      59       8.78955121       8.78953403       1.954E-06      0.09    <-- DIS
      60       8.78952874       8.78951347       1.737E-06      0.10    <-- DIS
      61       8.78950878       8.78949523       1.541E-06      0.10    <-- DIS
      62       8.78949107       8.78947907       1.365E-06      0.10    <-- DIS
      63       8.78947538       8.78946476       1.208E-06      0.10    <-- DIS
      64       8.78946150       8.78945211       1.068E-06      0.10    <-- DIS
      65       8.78944923       8.78944093       9.436E-07      0.11    <-- DIS
      66       8.78943839       8.78943107       8.326E-07      0.11    <-- DIS
      67       8.78942883       8.78942238       7.340E-07      0.11    <-- DIS
      68       8.78942041       8.78941472       6.466E-07      0.11    <-- DIS
      69       8.78941298       8.78940798       5.693E-07      0.11    <-- DIS
      70       8.78940645       8.78940205       5.008E-07      0.12    <-- DIS
      71       8.78940070       8.78939683       4.403E-07      0.12    <-- DIS
      72       8.78939565       8.78939225       3.870E-07      0.12    <-- DIS
      73       8.78939121       8.78938822       3.399E-07      0.12    <-- DIS
      74       8.78938731       8.78938468       2.984E-07      0.12    <-- DIS
      75       8.78938388       8.78938158       2.619E-07      0.12    <-- DIS
      76       8.78938088       8.78937886       2.298E-07      0.13    <-- DIS
      77       8.78937824       8.78937647       2.016E-07      0.13    <-- DIS
      78       8.78937593       8.78937437       1.767E-07      0.13    <-- DIS
      79       8.78937390       8.78937254       1.549E-07      0.13    <-- DIS
      80       8.78937212       8.78937093       1.358E-07      0.13    <-- DIS
      81       8.78937056       8.78936952       1.190E-07      0.14    <-- DIS
      82       8.78936920       8.78936828       1.042E-07      0.14    <-- DIS
      83       8.78936800       8.78936720       9.129E-08      0.14    <-- DIS
      84       8.78936696       8.78936625       7.995E-08      0.14    <-- DIS
      85       8.78936604       8.78936543       7.001E-08      0.14    <-- DIS
      86       8.78936524       8.78936470       6.129E-08      0.14    <-- DIS
      87       8.78936453       8.78936406       5.366E-08      0.15    <-- DIS
      88       8.78936392       8.78936351       4.697E-08      0.15    <-- DIS
      89       8.78936338       8.78936302       4.111E-08      0.15    <-- DIS
      90       8.78936291       8.78936259       3.598E-08      0.15    <-- DIS
      91       8.78936250       8.78936222       3.148E-08      0.15    <-- DIS
      92       8.78936214       8.78936189       2.755E-08      0.15    <-- DIS
      93       8.78936182       8.78936161       2.411E-08      0.16    <-- DIS
      94       8.78936154       8.78936136       2.109E-08      0.16    <-- DIS
      95       8.78936130       8.78936114       1.845E-08      0.16    <-- DIS
      96       8.78936109       8.78936095       1.614E-08      0.16    <-- DIS
      97       8.78936090       8.78936078       1.412E-08      0.16    <-- DIS
      98       8.78936074       8.78936063       1.236E-08      0.17    <-- DIS
      99       8.78936060       8.78936051       1.081E-08      0.17    <-- DIS
     100       8.78936048       8.78936039       9.455E-09      0.17    <-- DIS
     101       8.78936037       8.78936030       8.271E-09      0.17    <-- DIS
     102       8.78936027       8.78936021       7.235E-09      0.17    <-- DIS
     103       8.78936019       8.78936014       6.328E-09      0.17    <-- DIS
     104       8.78936012       8.78936007       5.535E-09      0.18    <-- DIS
     105       8.78936005       8.78936001       4.842E-09      0.18    <-- DIS
     106       8.78936000       8.78935996       4.235E-09      0.18    <-- DIS
     107       8.78935995       8.78935992       3.704E-09      0.18    <-- DIS
     108       8.78935991       8.78935988       3.240E-09      0.18    <-- DIS
     109       8.78935987       8.78935985       2.834E-09      0.19    <-- DIS
     110       8.78935984       8.78935982       2.478E-09      0.19    <-- DIS
     111       8.78935981       8.78935979       2.168E-09      0.19    <-- DIS
     112       8.78935979       8.78935977       1.896E-09      0.19    <-- DIS
     113       8.78935976       8.78935975       1.658E-09      0.19    <-- DIS
     114       8.78935974       8.78935973       1.450E-09      0.19    <-- DIS
     115       8.78935973       8.78935972       1.269E-09      0.19    <-- DIS
     116       8.78935971       8.78935970       1.110E-09      0.19    <-- DIS
     117       8.78935970       8.78935969       9.705E-10      0.20    <-- DIS
     118       8.78935969       8.78935968       8.489E-10      0.20    <-- DIS
     119       8.78935968       8.78935967       7.425E-10      0.20    <-- DIS
     120       8.78935967       8.78935967       6.494E-10      0.21    <-- DIS
     121       8.78935966       8.78935966       5.680E-10      0.21    <-- DIS
     122       8.78935966       8.78935965       4.968E-10      0.21    <-- DIS
     123       8.78935965       8.78935965       4.346E-10      0.21    <-- DIS
     124       8.78935965       8.78935964       3.801E-10      0.21    <-- DIS
     125       8.78935964       8.78935964       3.325E-10      0.21    <-- DIS
     126       8.78935964       8.78935964       2.908E-10      0.22    <-- DIS
     127       8.78935963       8.78935963       2.544E-10      0.22    <-- DIS
     128       8.78935963       8.78935963       2.225E-10      0.22    <-- DIS
     129       8.78935963       8.78935963       1.946E-10      0.22    <-- DIS
     130       8.78935963       8.78935963       1.703E-10      0.22    <-- DIS
     131       8.78935963       8.78935962       1.489E-10      0.22    <-- DIS
     132       8.78935962       8.78935962       1.303E-10      0.22    <-- DIS
     133       8.78935962       8.78935962       1.140E-10      0.23    <-- DIS
     134       8.78935962       8.78935962       9.969E-11      0.23    <-- DIS
     135       8.78935962       8.78935962       8.720E-11      0.23    <-- DIS
     136       8.78935962       8.78935962       7.628E-11      0.23    <-- DIS

             <<<      Delta < 1.000E-10  over  3 iterations     >>>
             <<< Disentanglement convergence criteria satisfied >>>

        Final Omega_I     8.78935962 (Ang^2)

 +----------------------------------------------------------------------------+


 Writing checkpoint file wannier.chk... done


 *------------------------------- WANNIERISE ---------------------------------*
 +--------------------------------------------------------------------+<-- CONV
 | Iter  Delta Spread     RMS Gradient      Spread (Ang^2)      Time  |<-- CONV
 +--------------------------------------------------------------------+<-- CONV

 ------------------------------------------------------------------------------
 Initial State
  WF centre and spread    1  ( -0.271349,  0.295615,  0.368817 )    13.48514302
  WF centre and spread    2  (  0.390589, -0.193793, -0.257300 )    12.01817337
  WF centre and spread    3  ( -0.334962,  0.306299, -0.106126 )    12.99099328
  WF centre and spread    4  (  0.167869, -0.379261,  0.410455 )    14.78788561
  Sum of centres and spreads ( -0.047853,  0.028860,  0.415845 )    53.28219528

      0     0.533E+02     0.0000000000       53.2821952797       0.23  <-- CONV
        O_D=     32.3213931 O_OD=     12.1714425 O_TOT=     53.2821953 <-- SPRD
 ------------------------------------------------------------------------------
 Final State
  WF centre and spread    1  ( -0.271349,  0.295615,  0.368817 )    13.48514302
  WF centre and spread    2  (  0.390589, -0.193793, -0.257300 )    12.01817337
  WF centre and spread    3  ( -0.334962,  0.306299, -0.106126 )    12.99099328
  WF centre and spread    4  (  0.167869, -0.379261,  0.410455 )    14.78788561
  Sum of centres and spreads ( -0.047853,  0.028860,  0.415845 )    53.28219528

         Spreads (Ang^2)       Omega I      =     8.789359618
        ================       Omega D      =    32.321393148
                               Omega OD     =    12.171442514
    Final Spread (Ang^2)       Omega Total  =    53.282195280
 ------------------------------------------------------------------------------

 Writing checkpoint file wannier.chk... done

 *---------------------------------------------------------------------------*
 |                               PLOTTING                                    |
 *---------------------------------------------------------------------------*


 *===========================================================================*
 |                             TIMING INFORMATION                            |
 *===========================================================================*
 |    Tag                                                Ncalls      Time (s)|
 |---------------------------------------------------------------------------|
 |kmesh: get                                        :         1         0.031|
 |overlap: read                                     :         1         0.062|
 |dis: main                                         :         1         0.234|
 |wann: main                                        :         1         0.000|
 |plot: main                                        :         1         0.016|
 *---------------------------------------------------------------------------*
