 
             +---------------------------------------------------+
             |                                                   |
             |                   WANNIER90                       |
             |                                                   |
             +---------------------------------------------------+
             |                                                   |
             |        Welcome to the Maximally-Localized         |
             |        Generalized Wannier Functions code         |
             |            http://www.wannier.org                 |
             |                                                   |
             |                                                   |
             |  Wannier90 Developer Group:                       |
             |    Giovanni Pizzi    (Paul Scherrer Institute)    |
             |    Valerio Vitale    (University of Trieste)      |
             |    David Vanderbilt  (Rutgers University)         |
             |    Nicola Marzari    (EPFL)                       |
             |    Ivo Souza         (Universidad del Pais Vasco) |
             |    Arash A. Mostofi  (Imperial College London)    |
             |    Jonathan R. Yates (University of Oxford)       |
             |                                                   |
             |  For the full list of Wannier90 3.x authors,      |
             |  please check the code documentation and the      |
             |  README on the GitHub page of the code            |
             |                                                   |
             |                                                   |
             |  Please cite                                      |
             |                                                   |
             |  [ref] "Wannier90 as a community code:            |
             |        new features and applications",            |
             |        G. Pizzi et al., J. Phys. Cond. Matt. 32,  |
             |        165902 (2020).                             |
             |        http://doi.org/10.1088/1361-648X/ab51ff    |
             |                                                   |
             |  in any publications arising from the use of      |
             |  this code. For the method please cite            |
             |                                                   |
             |  [ref] "Maximally Localized Generalised Wannier   |
             |         Functions for Composite Energy Bands"     |
             |         N. Marzari and D. Vanderbilt              |
             |         Phys. Rev. B 56 12847 (1997)              |
             |                                                   |
             |  [ref] "Maximally Localized Wannier Functions     |
             |         for Entangled Energy Bands"               |
             |         I. Souza, N. Marzari and D. Vanderbilt    |
             |         Phys. Rev. B 65 035109 (2001)             |
             |                                                   |
             |                                                   |
             | Copyright (c) 1996-2020                           |
             |        The Wannier90 Developer Group and          |
             |        individual contributors                    |
             |                                                   |
             |      Release: 3.1.0        5th March    2020      |
             |                                                   |
             | This program is free software; you can            |
             | redistribute it and/or modify it under the terms  |
             | of the GNU General Public License as published by |
             | the Free Software Foundation; either version 2 of |
             | the License, or (at your option) any later version|
             |                                                   |
             | This program is distributed in the hope that it   |
             | will be useful, but WITHOUT ANY WARRANTY; without |
             | even the implied warranty of MERCHANTABILITY or   |
             | FITNESS FOR A PARTICULAR PURPOSE. See the GNU     |
             | General Public License for more details.          |
             |                                                   |
             | You should have received a copy of the GNU General|
             | Public License along with this program; if not,   |
             | write to the Free Software Foundation, Inc.,      |
             | 675 Mass Ave, Cambridge, MA 02139, USA.           |
             |                                                   |
             +---------------------------------------------------+
             |    Execution started on 26Mar2024 at 13:01:33     |
             +---------------------------------------------------+
 
 ******************************************************************************
 * -> Using CODATA 2006 constant values                                       *
 *    (http://physics.nist.gov/cuu/Constants/index.html)                      *
 * -> Using Bohr value from CODATA                                            *
 ******************************************************************************
 

 Running in parallel on   2 CPUs

 
                                    ------
                                    SYSTEM
                                    ------
 
                              Lattice Vectors (Ang)
                    a_1     0.000000   2.840094   2.840094
                    a_2     2.840094   0.000000   2.840094
                    a_3     2.840094   2.840094   0.000000
 
                   Unit Cell Volume:      45.81716  (Ang^3)
 
                        Reciprocal-Space Vectors (Ang^-1)
                    b_1    -1.106158   1.106158   1.106158
                    b_2     1.106158  -1.106158   1.106158
                    b_3     1.106158   1.106158  -1.106158
  
 *----------------------------------------------------------------------------*
 |   Site       Fractional Coordinate          Cartesian Coordinate (Ang)     |
 +----------------------------------------------------------------------------+
 | g    1   0.00000   0.00000   0.00000   |    0.00000   0.00000   0.00000    |
 | as   1   0.13229   0.13229   0.13229   |    0.75146   0.75146   0.75146    |
 *----------------------------------------------------------------------------*
                                ------------
                                K-POINT GRID
                                ------------
  
             Grid size =  2 x  2 x  2      Total points =    8
  
  
 *---------------------------------- MAIN ------------------------------------*
 |  Number of Wannier Functions               :                 4             |
 |  Number of Objective Wannier Functions     :                 4             |
 |  Number of input Bloch states              :                 4             |
 |  Output verbosity (1=low, 5=high)          :                 1             |
 |  Timing Level (1=low, 5=high)              :                 1             |
 |  Optimisation (0=memory, 3=speed)          :                 3             |
 |  Length Unit                               :               Ang             |
 |  Post-processing setup (write *.nnkp)      :                 F             |
 |  Using Gamma-only branch of algorithms     :                 F             |
 *----------------------------------------------------------------------------*
 *------------------------------- WANNIERISE ---------------------------------*
 |  Total number of iterations                :               100             |
 |  Number of CG steps before reset           :                 5             |
 |  Trial step length for line search         :             2.000             |
 |  Convergence tolerence                     :         0.100E-09             |
 |  Convergence window                        :                -1             |
 |  Iterations between writing output         :                13             |
 |  Iterations between backing up to disk     :               100             |
 |  Write r^2_nm to file                      :                 F             |
 |  Write xyz WF centres to file              :                 F             |
 |  Write on-site energies <0n|H|0n> to file  :                 F             |
 |  Use guiding centre to control phases      :                 F             |
 |  Use phases for initial projections        :                 F             |
 *----------------------------------------------------------------------------*

 *---------------------------------- K-MESH ----------------------------------*
 +----------------------------------------------------------------------------+
 |                    Distance to Nearest-Neighbour Shells                    |
 |                    ------------------------------------                    |
 |          Shell             Distance (Ang^-1)          Multiplicity         |
 |          -----             -----------------          ------------         |
 |             1                   0.957961                      8            |
 |             2                   1.106158                      6            |
 |             3                   1.564344                     12            |
 |             4                   1.834355                     24            |
 |             5                   1.915922                      8            |
 |             6                   2.212316                      6            |
 |             7                   2.410815                     24            |
 |             8                   2.473444                     24            |
 |             9                   2.709523                     24            |
 |            10                   2.873883                     32            |
 |            11                   3.128687                     12            |
 |            12                   3.272059                     48            |
 +----------------------------------------------------------------------------+
 | The b-vectors are chosen automatically                                     |
 | The following shells are used:   1                                         |
 +----------------------------------------------------------------------------+
 |                        Shell   # Nearest-Neighbours                        |
 |                        -----   --------------------                        |
 |                          1               8                                 |
 +----------------------------------------------------------------------------+
 | Completeness relation is fully satisfied [Eq. (B1), PRB 56, 12847 (1997)]  |
 +----------------------------------------------------------------------------+
 |                  b_k Vectors (Ang^-1) and Weights (Ang^2)                  |
 |                  ----------------------------------------                  |
 |            No.         b_k(x)      b_k(y)      b_k(z)        w_b           |
 |            ---        --------------------------------     --------        |
 |             1         0.553079    0.553079   -0.553079     0.408635        |
 |             2         0.553079   -0.553079    0.553079     0.408635        |
 |             3        -0.553079    0.553079    0.553079     0.408635        |
 |             4         0.553079    0.553079    0.553079     0.408635        |
 |             5        -0.553079   -0.553079    0.553079     0.408635        |
 |             6        -0.553079    0.553079   -0.553079     0.408635        |
 |             7         0.553079   -0.553079   -0.553079     0.408635        |
 |             8        -0.553079   -0.553079   -0.553079     0.408635        |
 +----------------------------------------------------------------------------+
 |                           b_k Directions (Ang^-1)                          |
 |                           -----------------------                          |
 |            No.           x           y           z                         |
 |            ---        --------------------------------                     |
 |             1         0.553079    0.553079   -0.553079                     |
 |             2         0.553079   -0.553079    0.553079                     |
 |             3        -0.553079    0.553079    0.553079                     |
 |             4         0.553079    0.553079    0.553079                     |
 +----------------------------------------------------------------------------+
  
 Starting a new Wannier90 calculation ...


 Reading overlaps from wannier.mmn    : Created on 25Feb2006 at 11:03:51

 Reading projections from wannier.amn : Created on 25Feb2006 at 11:03:51
 
 *------------------------------- WANNIERISE ---------------------------------*
 +--------------------------------------------------------------------+<-- CONV
 | Iter  Delta Spread     RMS Gradient      Spread (Ang^2)      Time  |<-- CONV
 +--------------------------------------------------------------------+<-- CONV
 
 ------------------------------------------------------------------------------
 Initial State
  WF centre and spread    1  (  0.858603,  0.858603,  0.858603 )     1.17496653
  WF centre and spread    2  (  0.858603, -0.858603, -0.858603 )     1.17496653
  WF centre and spread    3  ( -0.858603,  0.858603, -0.858603 )     1.17496653
  WF centre and spread    4  ( -0.858603, -0.858603,  0.858603 )     1.17496653
  Sum of centres and spreads (  0.000000,  0.000000, -0.000000 )     4.69986614
 
      0     0.470E+01     0.0000000000        4.6998661359       0.00  <-- CONV
        O_D=      0.0054792 O_OD=      0.5106633 O_TOT=      4.6998661 <-- SPRD
 ------------------------------------------------------------------------------
 Cycle:      1
  WF centre and spread    1  (  0.858603,  0.858603,  0.858603 )     1.17496653
  WF centre and spread    2  (  0.858603, -0.858603, -0.858603 )     1.17496653
  WF centre and spread    3  ( -0.858603,  0.858603, -0.858603 )     1.17496653
  WF centre and spread    4  ( -0.858603, -0.858603,  0.858603 )     1.17496653
  Sum of centres and spreads (  0.000000,  0.000000, -0.000000 )     4.69986614
 
      1     0.888E-15     0.0000000005        4.6998661359       0.00  <-- CONV
        O_D=      0.0054792 O_OD=      0.5106633 O_TOT=      4.6998661 <-- SPRD
 Delta: O_D=  0.2220446E-15 O_OD=  0.1110223E-15 O_TOT=  0.8881784E-15 <-- DLTA
 ------------------------------------------------------------------------------
 Cycle:     13
  WF centre and spread    1  (  0.858603,  0.858603,  0.858603 )     1.17496653
  WF centre and spread    2  (  0.858603, -0.858603, -0.858603 )     1.17496653
  WF centre and spread    3  ( -0.858603,  0.858603, -0.858603 )     1.17496653
  WF centre and spread    4  ( -0.858603, -0.858603,  0.858603 )     1.17496653
  Sum of centres and spreads (  0.000000,  0.000000, -0.000000 )     4.69986614
 
     13     0.000E+00     0.0000000002        4.6998661359       0.00  <-- CONV
        O_D=      0.0054792 O_OD=      0.5106633 O_TOT=      4.6998661 <-- SPRD
 Delta: O_D=  0.6106227E-15 O_OD= -0.5551115E-15 O_TOT=  0.0000000E+00 <-- DLTA
 ------------------------------------------------------------------------------
 Cycle:     26
  WF centre and spread    1  (  0.858603,  0.858603,  0.858603 )     1.17496653
  WF centre and spread    2  (  0.858603, -0.858603, -0.858603 )     1.17496653
  WF centre and spread    3  ( -0.858603,  0.858603, -0.858603 )     1.17496653
  WF centre and spread    4  ( -0.858603, -0.858603,  0.858603 )     1.17496653
  Sum of centres and spreads (  0.000000,  0.000000, -0.000000 )     4.69986614
 
     26     0.000E+00     0.0000000002        4.6998661359       0.01  <-- CONV
        O_D=      0.0054792 O_OD=      0.5106633 O_TOT=      4.6998661 <-- SPRD
 Delta: O_D=  0.5551115E-16 O_OD= -0.6661338E-15 O_TOT=  0.0000000E+00 <-- DLTA
 ------------------------------------------------------------------------------
 Cycle:     39
  WF centre and spread    1  (  0.858603,  0.858603,  0.858603 )     1.17496653
  WF centre and spread    2  (  0.858603, -0.858603, -0.858603 )     1.17496653
  WF centre and spread    3  ( -0.858603,  0.858603, -0.858603 )     1.17496653
  WF centre and spread    4  ( -0.858603, -0.858603,  0.858603 )     1.17496653
  Sum of centres and spreads (  0.000000,  0.000000, -0.000000 )     4.69986614
 
     39     0.888E-15     0.0000000002        4.6998661359       0.01  <-- CONV
        O_D=      0.0054792 O_OD=      0.5106633 O_TOT=      4.6998661 <-- SPRD
 Delta: O_D=  0.3330669E-15 O_OD=  0.2220446E-15 O_TOT=  0.8881784E-15 <-- DLTA
 ------------------------------------------------------------------------------
 Cycle:     52
  WF centre and spread    1  (  0.858603,  0.858603,  0.858603 )     1.17496653
  WF centre and spread    2  (  0.858603, -0.858603, -0.858603 )     1.17496653
  WF centre and spread    3  ( -0.858603,  0.858603, -0.858603 )     1.17496653
  WF centre and spread    4  ( -0.858603, -0.858603,  0.858603 )     1.17496653
  Sum of centres and spreads (  0.000000,  0.000000, -0.000000 )     4.69986614
 
     52    -0.888E-15     0.0000000002        4.6998661359       0.02  <-- CONV
        O_D=      0.0054792 O_OD=      0.5106633 O_TOT=      4.6998661 <-- SPRD
 Delta: O_D= -0.1665335E-15 O_OD= -0.4440892E-15 O_TOT= -0.8881784E-15 <-- DLTA
 ------------------------------------------------------------------------------
 Cycle:     65
  WF centre and spread    1  (  0.858603,  0.858603,  0.858603 )     1.17496653
  WF centre and spread    2  (  0.858603, -0.858603, -0.858603 )     1.17496653
  WF centre and spread    3  ( -0.858603,  0.858603, -0.858603 )     1.17496653
  WF centre and spread    4  ( -0.858603, -0.858603,  0.858603 )     1.17496653
  Sum of centres and spreads (  0.000000,  0.000000, -0.000000 )     4.69986614
 
     65     0.000E+00     0.0000000002        4.6998661359       0.02  <-- CONV
        O_D=      0.0054792 O_OD=      0.5106633 O_TOT=      4.6998661 <-- SPRD
 Delta: O_D= -0.1665335E-15 O_OD= -0.2220446E-15 O_TOT=  0.0000000E+00 <-- DLTA
 ------------------------------------------------------------------------------
 Cycle:     78
  WF centre and spread    1  (  0.858603,  0.858603,  0.858603 )     1.17496653
  WF centre and spread    2  (  0.858603, -0.858603, -0.858603 )     1.17496653
  WF centre and spread    3  ( -0.858603,  0.858603, -0.858603 )     1.17496653
  WF centre and spread    4  ( -0.858603, -0.858603,  0.858603 )     1.17496653
  Sum of centres and spreads (  0.000000,  0.000000, -0.000000 )     4.69986614
 
     78     0.888E-15     0.0000000002        4.6998661359       0.03  <-- CONV
        O_D=      0.0054792 O_OD=      0.5106633 O_TOT=      4.6998661 <-- SPRD
 Delta: O_D=  0.3885781E-15 O_OD=  0.3330669E-15 O_TOT=  0.8881784E-15 <-- DLTA
 ------------------------------------------------------------------------------
 Cycle:     91
  WF centre and spread    1  (  0.858603,  0.858603,  0.858603 )     1.17496653
  WF centre and spread    2  (  0.858603, -0.858603, -0.858603 )     1.17496653
  WF centre and spread    3  ( -0.858603,  0.858603, -0.858603 )     1.17496653
  WF centre and spread    4  ( -0.858603, -0.858603,  0.858603 )     1.17496653
  Sum of centres and spreads (  0.000000,  0.000000, -0.000000 )     4.69986614
 
     91    -0.888E-15     0.0000000002        4.6998661359       0.03  <-- CONV
        O_D=      0.0054792 O_OD=      0.5106633 O_TOT=      4.6998661 <-- SPRD
 Delta: O_D= -0.2220446E-15 O_OD= -0.3330669E-15 O_TOT= -0.8881784E-15 <-- DLTA
 ------------------------------------------------------------------------------
 Cycle:    100
  WF centre and spread    1  (  0.858603,  0.858603,  0.858603 )     1.17496653
  WF centre and spread    2  (  0.858603, -0.858603, -0.858603 )     1.17496653
  WF centre and spread    3  ( -0.858603,  0.858603, -0.858603 )     1.17496653
  WF centre and spread    4  ( -0.858603, -0.858603,  0.858603 )     1.17496653
  Sum of centres and spreads (  0.000000,  0.000000, -0.000000 )     4.69986614
 
    100     0.000E+00     0.0000000002        4.6998661359       0.03  <-- CONV
        O_D=      0.0054792 O_OD=      0.5106633 O_TOT=      4.6998661 <-- SPRD
 Delta: O_D=  0.2220446E-15 O_OD=  0.1110223E-15 O_TOT=  0.0000000E+00 <-- DLTA
 ------------------------------------------------------------------------------
 Final State
  WF centre and spread    1  (  0.858603,  0.858603,  0.858603 )     1.17496653
  WF centre and spread    2  (  0.858603, -0.858603, -0.858603 )     1.17496653
  WF centre and spread    3  ( -0.858603,  0.858603, -0.858603 )     1.17496653
  WF centre and spread    4  ( -0.858603, -0.858603,  0.858603 )     1.17496653
  Sum of centres and spreads (  0.000000,  0.000000, -0.000000 )     4.69986614
 
         Spreads (Ang^2)       Omega I      =     4.183723586
        ================       Omega D      =     0.005479245
                               Omega OD     =     0.510663304
    Final Spread (Ang^2)       Omega Total  =     4.699866136
 ------------------------------------------------------------------------------

 Writing checkpoint file wannier.chk... done


 *===========================================================================*
 |                             TIMING INFORMATION                            |
 *===========================================================================*
 |    Tag                                                Ncalls      Time (s)|
 |---------------------------------------------------------------------------|
 |kmesh: get                                        :         1         0.015|
 |overlap: read                                     :         1         0.003|
 |wann: main                                        :         1         0.033|
 |plot: main                                        :         1         0.000|
 *---------------------------------------------------------------------------*
