
             +---------------------------------------------------+
             |                                                   |
             |                   WANNIER90                       |
             |                                                   |
             +---------------------------------------------------+
             |                                                   |
             |        Welcome to the Maximally-Localized         |
             |        Generalized Wannier Functions code         |
             |            http://www.wannier.org                 |
             |                                                   |
             |                                                   |
             |  Wannier90 Developer Group:                       |
             |    Giovanni Pizzi    (Paul Scherrer Institute)    |
             |    Valerio Vitale    (University of Trieste)      |
             |    David Vanderbilt  (Rutgers University)         |
             |    Nicola Marzari    (EPFL)                       |
             |    Ivo Souza         (Universidad del Pais Vasco) |
             |    Arash A. Mostofi  (Imperial College London)    |
             |    Jonathan R. Yates (University of Oxford)       |
             |                                                   |
             |  For the full list of Wannier90 3.x authors,      |
             |  please check the code documentation and the      |
             |  README on the GitHub page of the code            |
             |                                                   |
             |                                                   |
             |  Please cite                                      |
             |                                                   |
             |  [ref] "Wannier90 as a community code:            |
             |        new features and applications",            |
             |        G. Pizzi et al., J. Phys. Cond. Matt. 32,  |
             |        165902 (2020).                             |
             |        http://doi.org/10.1088/1361-648X/ab51ff    |
             |                                                   |
             |  in any publications arising from the use of      |
             |  this code. For the method please cite            |
             |                                                   |
             |  [ref] "Maximally Localized Generalised Wannier   |
             |         Functions for Composite Energy Bands"     |
             |         N. Marzari and D. Vanderbilt              |
             |         Phys. Rev. B 56 12847 (1997)              |
             |                                                   |
             |  [ref] "Maximally Localized Wannier Functions     |
             |         for Entangled Energy Bands"               |
             |         I. Souza, N. Marzari and D. Vanderbilt    |
             |         Phys. Rev. B 65 035109 (2001)             |
             |                                                   |
             |                                                   |
             | Copyright (c) 1996-2020                           |
             |        The Wannier90 Developer Group and          |
             |        individual contributors                    |
             |                                                   |
             |      Release: 3.1.0        5th March    2020      |
             |                                                   |
             | This program is free software; you can            |
             | redistribute it and/or modify it under the terms  |
             | of the GNU General Public License as published by |
             | the Free Software Foundation; either version 2 of |
             | the License, or (at your option) any later version|
             |                                                   |
             | This program is distributed in the hope that it   |
             | will be useful, but WITHOUT ANY WARRANTY; without |
             | even the implied warranty of MERCHANTABILITY or   |
             | FITNESS FOR A PARTICULAR PURPOSE. See the GNU     |
             | General Public License for more details.          |
             |                                                   |
             | You should have received a copy of the GNU General|
             | Public License along with this program; if not,   |
             | write to the Free Software Foundation, Inc.,      |
             | 675 Mass Ave, Cambridge, MA 02139, USA.           |
             |                                                   |
             +---------------------------------------------------+
             |    Execution started on  4Apr2024 at 11:27:29     |
             +---------------------------------------------------+
 
 ******************************************************************************
 * -> Using CODATA 2006 constant values                                       *
 *    (http://physics.nist.gov/cuu/Constants/index.html)                      *
 * -> Using Bohr value from CODATA                                            *
 ******************************************************************************
 

 Running in serial (with parallel executable)

                                    ------
                                    SYSTEM
                                    ------

                              Lattice Vectors (Ang)
                    a_1     1.484435   1.484435   1.484435
                    a_2    -1.484435   1.484435   1.484435
                    a_3    -1.484435  -1.484435   1.484435

                   Unit Cell Volume:      13.08410  (Ang^3)

                        Reciprocal-Space Vectors (Ang^-1)
                    b_1     2.116355   0.000000   2.116355
                    b_2    -2.116355   2.116355   0.000000
                    b_3     0.000000  -2.116355   2.116355
  
 *----------------------------------------------------------------------------*
 |   Site       Fractional Coordinate          Cartesian Coordinate (Ang)     |
 +----------------------------------------------------------------------------+
 | s    1   0.00000   0.00000   0.00000   |    0.00000   0.00000   0.00000    |
 | h    1   0.50000  -0.50000   0.00000   |    1.48444   0.00000   0.00000    |
 | h    2   0.00000   0.50000  -0.50000   |    0.00000   1.48444   0.00000    |
 | h    3   0.50000   0.00000   0.50000   |    0.00000   0.00000   1.48444    |
 *----------------------------------------------------------------------------*
                                ------------
                                K-POINT GRID
                                ------------
  
             Grid size =  2 x  2 x  2      Total points =    8
  
  
 *---------------------------------- MAIN ------------------------------------*
 |  Number of Wannier Functions               :                12             |
 |  Number of Objective Wannier Functions     :                12             |
 |  Number of input Bloch states              :                20             |
 |  Output verbosity (1=low, 5=high)          :                 1             |
 |  Timing Level (1=low, 5=high)              :                 1             |
 |  Optimisation (0=memory, 3=speed)          :                 3             |
 |  Length Unit                               :               Ang             |
 |  Post-processing setup (write *.nnkp)      :                 F             |
 |  Using Gamma-only branch of algorithms     :                 F             |
 |  Using symmetry-adapted WF mode            :                 T             |
 |  Tolerance for symmetry condition on U     :         0.100E-07             |
 *----------------------------------------------------------------------------*
 *------------------------------- WANNIERISE ---------------------------------*
 |  Total number of iterations                :                10             |
 |  Number of CG steps before reset           :                 5             |
 |  Trial step length for line search         :             2.000             |
 |  Convergence tolerence                     :         0.100E-09             |
 |  Convergence window                        :                -1             |
 |  Iterations between writing output         :                10             |
 |  Iterations between backing up to disk     :               100             |
 |  Write r^2_nm to file                      :                 F             |
 |  Write xyz WF centres to file              :                 F             |
 |  Write on-site energies <0n|H|0n> to file  :                 F             |
 |  Use guiding centre to control phases      :                 F             |
 |  Use phases for initial projections        :                 F             |
 *----------------------------------------------------------------------------*
 *------------------------------- DISENTANGLE --------------------------------*
 |  Using band disentanglement                :                 T             |
 |  Total number of iterations                :                10             |
 |  Mixing ratio                              :             0.200             |
 |  Convergence tolerence                     :         1.000E-10             |
 |  Convergence window                        :                 3             |
 *----------------------------------------------------------------------------*

 *---------------------------------- K-MESH ----------------------------------*
 +----------------------------------------------------------------------------+
 |                    Distance to Nearest-Neighbour Shells                    |
 |                    ------------------------------------                    |
 |          Shell             Distance (Ang^-1)          Multiplicity         |
 |          -----             -----------------          ------------         |
 |             1                   1.496489                     12            |
 |             2                   2.116355                      6            |
 |             3                   2.591995                     24            |
 |             4                   2.992978                     12            |
 |             5                   3.346252                     24            |
 |             6                   3.665635                      8            |
 |             7                   3.959338                     48            |
 |             8                   4.232711                      6            |
 |             9                   4.489468                     36            |
 |            10                   4.732314                     24            |
 |            11                   4.963293                     24            |
 |            12                   5.183991                     24            |
 |            13                   5.395669                     72            |
 |            14                   5.795878                     48            |
 |            15                   5.985957                     12            |
 |            16                   6.170183                     48            |
 |            17                   6.349066                     30            |
 |            18                   6.523045                     72            |
 |            19                   6.692503                     24            |
 |            20                   6.857775                     48            |
 |            21                   7.019157                     24            |
 |            22                   7.176910                     48            |
 |            23                   7.331270                      8            |
 |            24                   7.482446                     84            |
 |            25                   7.630628                     24            |
 |            26                   7.775986                     96            |
 |            27                   7.918677                     48            |
 |            28                   8.058841                     24            |
 |            29                   8.332099                     96            |
 |            30                   8.465421                      6            |
 |            31                   8.596676                     96            |
 |            32                   8.725957                     48            |
 |            33                   8.853350                     48            |
 |            34                   8.978935                     36            |
 |            35                   9.102789                    120            |
 |            36                   9.224979                     24            |
 +----------------------------------------------------------------------------+
 | The b-vectors are chosen automatically                                     |
 | The following shells are used:   1                                         |
 +----------------------------------------------------------------------------+
 |                        Shell   # Nearest-Neighbours                        |
 |                        -----   --------------------                        |
 |                          1              12                                 |
 +----------------------------------------------------------------------------+
 | Completeness relation is fully satisfied [Eq. (B1), PRB 56, 12847 (1997)]  |
 +----------------------------------------------------------------------------+
 |                  b_k Vectors (Ang^-1) and Weights (Ang^2)                  |
 |                  ----------------------------------------                  |
 |            No.         b_k(x)      b_k(y)      b_k(z)        w_b           |
 |            ---        --------------------------------     --------        |
 |             1         0.000000   -1.058178    1.058178     0.111633        |
 |             2        -1.058178    1.058178    0.000000     0.111633        |
 |             3        -1.058178    0.000000    1.058178     0.111633        |
 |             4         1.058178    0.000000    1.058178     0.111633        |
 |             5         0.000000    1.058178    1.058178     0.111633        |
 |             6         0.000000    1.058178   -1.058178     0.111633        |
 |             7         1.058178    1.058178    0.000000     0.111633        |
 |             8         1.058178   -1.058178    0.000000     0.111633        |
 |             9         1.058178    0.000000   -1.058178     0.111633        |
 |            10        -1.058178    0.000000   -1.058178     0.111633        |
 |            11        -1.058178   -1.058178    0.000000     0.111633        |
 |            12         0.000000   -1.058178   -1.058178     0.111633        |
 +----------------------------------------------------------------------------+
 |                           b_k Directions (Ang^-1)                          |
 |                           -----------------------                          |
 |            No.           x           y           z                         |
 |            ---        --------------------------------                     |
 |             1         0.000000   -1.058178    1.058178                     |
 |             2        -1.058178    1.058178    0.000000                     |
 |             3        -1.058178    0.000000    1.058178                     |
 |             4         1.058178    0.000000    1.058178                     |
 |             5         0.000000    1.058178    1.058178                     |
 |             6         1.058178    1.058178    0.000000                     |
 +----------------------------------------------------------------------------+
  
 Starting a new Wannier90 calculation ...


 Reading overlaps from H3S.mmn    :  Created on 20Feb2020 at 14:25: 7

 Reading projections from H3S.amn :  Created on 20Feb2020 at 14:25: 6

 *------------------------------- DISENTANGLE --------------------------------*
 +----------------------------------------------------------------------------+
 |                              Energy  Windows                               |
 |                              ---------------                               |
 |                   Outer: -100.00000  to   95.00000  (eV)                   |
